V -t * -v 1.0a5 -a 0
A -t * -n 1 -p 0 -o 0x7fffffff -c 30 -a 1
A -t * -h 1 -m 1073741823 -s 0
c -t * -i 1 -n red
n -t * -a 0 -s 0 -S UP -v circle -c black -i black
n -t * -a 1 -s 1 -S UP -v circle -c black -i black
n -t * -a 2 -s 2 -S UP -v circle -c black -i black
n -t * -a 3 -s 3 -S UP -v circle -c black -i black
l -t * -s 0 -d 2 -S UP -r 2000000 -D 0.01 -c black
l -t * -s 1 -d 2 -S UP -r 2000000 -D 0.01 -c black
l -t * -s 3 -d 2 -S UP -r 500000 -D 0.0090000000000000011 -c black
+ -t 0 -s 0 -d 2 -p tcp -e 40 -c 1 -i 0 -a 1 -x {0.0 3.0 0 ------- null}
- -t 0 -s 0 -d 2 -p tcp -e 40 -c 1 -i 0 -a 1 -x {0.0 3.0 0 ------- null}
h -t 0 -s 0 -d 2 -p tcp -e 40 -c 1 -i 0 -a 1 -x {0.0 3.0 -1 ------- null}
r -t 0.01016 -s 0 -d 2 -p tcp -e 40 -c 1 -i 0 -a 1 -x {0.0 3.0 0 ------- null}
+ -t 0.01016 -s 2 -d 3 -p tcp -e 40 -c 1 -i 0 -a 1 -x {0.0 3.0 0 ------- null}
- -t 0.01016 -s 2 -d 3 -p tcp -e 40 -c 1 -i 0 -a 1 -x {0.0 3.0 0 ------- null}
h -t 0.01016 -s 2 -d 3 -p tcp -e 40 -c 1 -i 0 -a 1 -x {0.0 3.0 -1 ------- null}
r -t 0.0198 -s 2 -d 3 -p tcp -e 40 -c 1 -i 0 -a 1 -x {0.0 3.0 0 ------- null}
+ -t 0.0198 -s 3 -d 2 -p ack -e 40 -c 1 -i 1 -a 1 -x {3.0 0.0 0 ------- null}
- -t 0.0198 -s 3 -d 2 -p ack -e 40 -c 1 -i 1 -a 1 -x {3.0 0.0 0 ------- null}
h -t 0.0198 -s 3 -d 2 -p ack -e 40 -c 1 -i 1 -a 1 -x {3.0 0.0 -1 ------- null}
r -t 0.02944 -s 3 -d 2 -p ack -e 40 -c 1 -i 1 -a 1 -x {3.0 0.0 0 ------- null}
+ -t 0.02944 -s 2 -d 0 -p ack -e 40 -c 1 -i 1 -a 1 -x {3.0 0.0 0 ------- null}
- -t 0.02944 -s 2 -d 0 -p ack -e 40 -c 1 -i 1 -a 1 -x {3.0 0.0 0 ------- null}
h -t 0.02944 -s 2 -d 0 -p ack -e 40 -c 1 -i 1 -a 1 -x {3.0 0.0 -1 ------- null}
r -t 0.0396 -s 2 -d 0 -p ack -e 40 -c 1 -i 1 -a 1 -x {3.0 0.0 0 ------- null}
+ -t 0.0396 -s 0 -d 2 -p tcp -e 1040 -c 1 -i 2 -a 1 -x {0.0 3.0 1 ------- null}
- -t 0.0396 -s 0 -d 2 -p tcp -e 1040 -c 1 -i 2 -a 1 -x {0.0 3.0 1 ------- null}
h -t 0.0396 -s 0 -d 2 -p tcp -e 1040 -c 1 -i 2 -a 1 -x {0.0 3.0 -1 ------- null}
+ -t 0.0396 -s 0 -d 2 -p tcp -e 1040 -c 1 -i 3 -a 1 -x {0.0 3.0 2 ------- null}
- -t 0.04376 -s 0 -d 2 -p tcp -e 1040 -c 1 -i 3 -a 1 -x {0.0 3.0 2 ------- null}
h -t 0.04376 -s 0 -d 2 -p tcp -e 1040 -c 1 -i 3 -a 1 -x {0.0 3.0 -1 ------- null}
r -t 0.05376 -s 0 -d 2 -p tcp -e 1040 -c 1 -i 2 -a 1 -x {0.0 3.0 1 ------- null}
+ -t 0.05376 -s 2 -d 3 -p tcp -e 1040 -c 1 -i 2 -a 1 -x {0.0 3.0 1 ------- null}
- -t 0.05376 -s 2 -d 3 -p tcp -e 1040 -c 1 -i 2 -a 1 -x {0.0 3.0 1 ------- null}
h -t 0.05376 -s 2 -d 3 -p tcp -e 1040 -c 1 -i 2 -a 1 -x {0.0 3.0 -1 ------- null}
r -t 0.05792 -s 0 -d 2 -p tcp -e 1040 -c 1 -i 3 -a 1 -x {0.0 3.0 2 ------- null}
+ -t 0.05792 -s 2 -d 3 -p tcp -e 1040 -c 1 -i 3 -a 1 -x {0.0 3.0 2 ------- null}
- -t 0.0704 -s 2 -d 3 -p tcp -e 1040 -c 1 -i 3 -a 1 -x {0.0 3.0 2 ------- null}
h -t 0.0704 -s 2 -d 3 -p tcp -e 1040 -c 1 -i 3 -a 1 -x {0.0 3.0 -1 ------- null}
r -t 0.0794 -s 2 -d 3 -p tcp -e 1040 -c 1 -i 2 -a 1 -x {0.0 3.0 1 ------- null}
+ -t 0.0794 -s 3 -d 2 -p ack -e 40 -c 1 -i 4 -a 1 -x {3.0 0.0 1 ------- null}
- -t 0.0794 -s 3 -d 2 -p ack -e 40 -c 1 -i 4 -a 1 -x {3.0 0.0 1 ------- null}
h -t 0.0794 -s 3 -d 2 -p ack -e 40 -c 1 -i 4 -a 1 -x {3.0 0.0 -1 ------- null}
r -t 0.08904 -s 3 -d 2 -p ack -e 40 -c 1 -i 4 -a 1 -x {3.0 0.0 1 ------- null}
+ -t 0.08904 -s 2 -d 0 -p ack -e 40 -c 1 -i 4 -a 1 -x {3.0 0.0 1 ------- null}
- -t 0.08904 -s 2 -d 0 -p ack -e 40 -c 1 -i 4 -a 1 -x {3.0 0.0 1 ------- null}
h -t 0.08904 -s 2 -d 0 -p ack -e 40 -c 1 -i 4 -a 1 -x {3.0 0.0 -1 ------- null}
r -t 0.09604 -s 2 -d 3 -p tcp -e 1040 -c 1 -i 3 -a 1 -x {0.0 3.0 2 ------- null}
+ -t 0.09604 -s 3 -d 2 -p ack -e 40 -c 1 -i 5 -a 1 -x {3.0 0.0 2 ------- null}
- -t 0.09604 -s 3 -d 2 -p ack -e 40 -c 1 -i 5 -a 1 -x {3.0 0.0 2 ------- null}
h -t 0.09604 -s 3 -d 2 -p ack -e 40 -c 1 -i 5 -a 1 -x {3.0 0.0 -1 ------- null}
r -t 0.0992 -s 2 -d 0 -p ack -e 40 -c 1 -i 4 -a 1 -x {3.0 0.0 1 ------- null}
+ -t 0.0992 -s 0 -d 2 -p tcp -e 1040 -c 1 -i 6 -a 1 -x {0.0 3.0 3 ------- null}
- -t 0.0992 -s 0 -d 2 -p tcp -e 1040 -c 1 -i 6 -a 1 -x {0.0 3.0 3 ------- null}
h -t 0.0992 -s 0 -d 2 -p tcp -e 1040 -c 1 -i 6 -a 1 -x {0.0 3.0 -1 ------- null}
+ -t 0.0992 -s 0 -d 2 -p tcp -e 1040 -c 1 -i 7 -a 1 -x {0.0 3.0 4 ------- null}
- -t 0.10336 -s 0 -d 2 -p tcp -e 1040 -c 1 -i 7 -a 1 -x {0.0 3.0 4 ------- null}
h -t 0.10336 -s 0 -d 2 -p tcp -e 1040 -c 1 -i 7 -a 1 -x {0.0 3.0 -1 ------- null}
r -t 0.10568 -s 3 -d 2 -p ack -e 40 -c 1 -i 5 -a 1 -x {3.0 0.0 2 ------- null}
+ -t 0.10568 -s 2 -d 0 -p ack -e 40 -c 1 -i 5 -a 1 -x {3.0 0.0 2 ------- null}
- -t 0.10568 -s 2 -d 0 -p ack -e 40 -c 1 -i 5 -a 1 -x {3.0 0.0 2 ------- null}
h -t 0.10568 -s 2 -d 0 -p ack -e 40 -c 1 -i 5 -a 1 -x {3.0 0.0 -1 ------- null}
r -t 0.11336 -s 0 -d 2 -p tcp -e 1040 -c 1 -i 6 -a 1 -x {0.0 3.0 3 ------- null}
+ -t 0.11336 -s 2 -d 3 -p tcp -e 1040 -c 1 -i 6 -a 1 -x {0.0 3.0 3 ------- null}
- -t 0.11336 -s 2 -d 3 -p tcp -e 1040 -c 1 -i 6 -a 1 -x {0.0 3.0 3 ------- null}
h -t 0.11336 -s 2 -d 3 -p tcp -e 1040 -c 1 -i 6 -a 1 -x {0.0 3.0 -1 ------- null}
r -t 0.11584 -s 2 -d 0 -p ack -e 40 -c 1 -i 5 -a 1 -x {3.0 0.0 2 ------- null}
+ -t 0.11584 -s 0 -d 2 -p tcp -e 1040 -c 1 -i 8 -a 1 -x {0.0 3.0 5 ------- null}
- -t 0.11584 -s 0 -d 2 -p tcp -e 1040 -c 1 -i 8 -a 1 -x {0.0 3.0 5 ------- null}
h -t 0.11584 -s 0 -d 2 -p tcp -e 1040 -c 1 -i 8 -a 1 -x {0.0 3.0 -1 ------- null}
+ -t 0.11584 -s 0 -d 2 -p tcp -e 1040 -c 1 -i 9 -a 1 -x {0.0 3.0 6 ------- null}
r -t 0.11752 -s 0 -d 2 -p tcp -e 1040 -c 1 -i 7 -a 1 -x {0.0 3.0 4 ------- null}
+ -t 0.11752 -s 2 -d 3 -p tcp -e 1040 -c 1 -i 7 -a 1 -x {0.0 3.0 4 ------- null}
- -t 0.12 -s 0 -d 2 -p tcp -e 1040 -c 1 -i 9 -a 1 -x {0.0 3.0 6 ------- null}
h -t 0.12 -s 0 -d 2 -p tcp -e 1040 -c 1 -i 9 -a 1 -x {0.0 3.0 -1 ------- null}
- -t 0.13 -s 2 -d 3 -p tcp -e 1040 -c 1 -i 7 -a 1 -x {0.0 3.0 4 ------- null}
h -t 0.13 -s 2 -d 3 -p tcp -e 1040 -c 1 -i 7 -a 1 -x {0.0 3.0 -1 ------- null}
r -t 0.13 -s 0 -d 2 -p tcp -e 1040 -c 1 -i 8 -a 1 -x {0.0 3.0 5 ------- null}
+ -t 0.13 -s 2 -d 3 -p tcp -e 1040 -c 1 -i 8 -a 1 -x {0.0 3.0 5 ------- null}
r -t 0.13416 -s 0 -d 2 -p tcp -e 1040 -c 1 -i 9 -a 1 -x {0.0 3.0 6 ------- null}
+ -t 0.13416 -s 2 -d 3 -p tcp -e 1040 -c 1 -i 9 -a 1 -x {0.0 3.0 6 ------- null}
r -t 0.139 -s 2 -d 3 -p tcp -e 1040 -c 1 -i 6 -a 1 -x {0.0 3.0 3 ------- null}
+ -t 0.139 -s 3 -d 2 -p ack -e 40 -c 1 -i 10 -a 1 -x {3.0 0.0 3 ------- null}
- -t 0.139 -s 3 -d 2 -p ack -e 40 -c 1 -i 10 -a 1 -x {3.0 0.0 3 ------- null}
h -t 0.139 -s 3 -d 2 -p ack -e 40 -c 1 -i 10 -a 1 -x {3.0 0.0 -1 ------- null}
- -t 0.14664 -s 2 -d 3 -p tcp -e 1040 -c 1 -i 8 -a 1 -x {0.0 3.0 5 ------- null}
h -t 0.14664 -s 2 -d 3 -p tcp -e 1040 -c 1 -i 8 -a 1 -x {0.0 3.0 -1 ------- null}
r -t 0.14864 -s 3 -d 2 -p ack -e 40 -c 1 -i 10 -a 1 -x {3.0 0.0 3 ------- null}
+ -t 0.14864 -s 2 -d 0 -p ack -e 40 -c 1 -i 10 -a 1 -x {3.0 0.0 3 ------- null}
- -t 0.14864 -s 2 -d 0 -p ack -e 40 -c 1 -i 10 -a 1 -x {3.0 0.0 3 ------- null}
h -t 0.14864 -s 2 -d 0 -p ack -e 40 -c 1 -i 10 -a 1 -x {3.0 0.0 -1 ------- null}
r -t 0.15564 -s 2 -d 3 -p tcp -e 1040 -c 1 -i 7 -a 1 -x {0.0 3.0 4 ------- null}
+ -t 0.15564 -s 3 -d 2 -p ack -e 40 -c 1 -i 11 -a 1 -x {3.0 0.0 4 ------- null}
- -t 0.15564 -s 3 -d 2 -p ack -e 40 -c 1 -i 11 -a 1 -x {3.0 0.0 4 ------- null}
h -t 0.15564 -s 3 -d 2 -p ack -e 40 -c 1 -i 11 -a 1 -x {3.0 0.0 -1 ------- null}
r -t 0.1588 -s 2 -d 0 -p ack -e 40 -c 1 -i 10 -a 1 -x {3.0 0.0 3 ------- null}
+ -t 0.1588 -s 0 -d 2 -p tcp -e 1040 -c 1 -i 12 -a 1 -x {0.0 3.0 7 ------- null}
- -t 0.1588 -s 0 -d 2 -p tcp -e 1040 -c 1 -i 12 -a 1 -x {0.0 3.0 7 ------- null}
h -t 0.1588 -s 0 -d 2 -p tcp -e 1040 -c 1 -i 12 -a 1 -x {0.0 3.0 -1 ------- null}
+ -t 0.1588 -s 0 -d 2 -p tcp -e 1040 -c 1 -i 13 -a 1 -x {0.0 3.0 8 ------- null}
- -t 0.16296 -s 0 -d 2 -p tcp -e 1040 -c 1 -i 13 -a 1 -x {0.0 3.0 8 ------- null}
h -t 0.16296 -s 0 -d 2 -p tcp -e 1040 -c 1 -i 13 -a 1 -x {0.0 3.0 -1 ------- null}
- -t 0.16328 -s 2 -d 3 -p tcp -e 1040 -c 1 -i 9 -a 1 -x {0.0 3.0 6 ------- null}
h -t 0.16328 -s 2 -d 3 -p tcp -e 1040 -c 1 -i 9 -a 1 -x {0.0 3.0 -1 ------- null}
r -t 0.16528 -s 3 -d 2 -p ack -e 40 -c 1 -i 11 -a 1 -x {3.0 0.0 4 ------- null}
+ -t 0.16528 -s 2 -d 0 -p ack -e 40 -c 1 -i 11 -a 1 -x {3.0 0.0 4 ------- null}
- -t 0.16528 -s 2 -d 0 -p ack -e 40 -c 1 -i 11 -a 1 -x {3.0 0.0 4 ------- null}
h -t 0.16528 -s 2 -d 0 -p ack -e 40 -c 1 -i 11 -a 1 -x {3.0 0.0 -1 ------- null}
r -t 0.17228 -s 2 -d 3 -p tcp -e 1040 -c 1 -i 8 -a 1 -x {0.0 3.0 5 ------- null}
+ -t 0.17228 -s 3 -d 2 -p ack -e 40 -c 1 -i 14 -a 1 -x {3.0 0.0 5 ------- null}
- -t 0.17228 -s 3 -d 2 -p ack -e 40 -c 1 -i 14 -a 1 -x {3.0 0.0 5 ------- null}
h -t 0.17228 -s 3 -d 2 -p ack -e 40 -c 1 -i 14 -a 1 -x {3.0 0.0 -1 ------- null}
r -t 0.17296 -s 0 -d 2 -p tcp -e 1040 -c 1 -i 12 -a 1 -x {0.0 3.0 7 ------- null}
+ -t 0.17296 -s 2 -d 3 -p tcp -e 1040 -c 1 -i 12 -a 1 -x {0.0 3.0 7 ------- null}
r -t 0.17544 -s 2 -d 0 -p ack -e 40 -c 1 -i 11 -a 1 -x {3.0 0.0 4 ------- null}
+ -t 0.17544 -s 0 -d 2 -p tcp -e 1040 -c 1 -i 15 -a 1 -x {0.0 3.0 9 ------- null}
- -t 0.17544 -s 0 -d 2 -p tcp -e 1040 -c 1 -i 15 -a 1 -x {0.0 3.0 9 ------- null}
h -t 0.17544 -s 0 -d 2 -p tcp -e 1040 -c 1 -i 15 -a 1 -x {0.0 3.0 -1 ------- null}
+ -t 0.17544 -s 0 -d 2 -p tcp -e 1040 -c 1 -i 16 -a 1 -x {0.0 3.0 10 ------- null}
r -t 0.17712 -s 0 -d 2 -p tcp -e 1040 -c 1 -i 13 -a 1 -x {0.0 3.0 8 ------- null}
+ -t 0.17712 -s 2 -d 3 -p tcp -e 1040 -c 1 -i 13 -a 1 -x {0.0 3.0 8 ------- null}
- -t 0.1796 -s 0 -d 2 -p tcp -e 1040 -c 1 -i 16 -a 1 -x {0.0 3.0 10 ------- null}
h -t 0.1796 -s 0 -d 2 -p tcp -e 1040 -c 1 -i 16 -a 1 -x {0.0 3.0 -1 ------- null}
- -t 0.17992 -s 2 -d 3 -p tcp -e 1040 -c 1 -i 12 -a 1 -x {0.0 3.0 7 ------- null}
h -t 0.17992 -s 2 -d 3 -p tcp -e 1040 -c 1 -i 12 -a 1 -x {0.0 3.0 -1 ------- null}
r -t 0.18192 -s 3 -d 2 -p ack -e 40 -c 1 -i 14 -a 1 -x {3.0 0.0 5 ------- null}
+ -t 0.18192 -s 2 -d 0 -p ack -e 40 -c 1 -i 14 -a 1 -x {3.0 0.0 5 ------- null}
- -t 0.18192 -s 2 -d 0 -p ack -e 40 -c 1 -i 14 -a 1 -x {3.0 0.0 5 ------- null}
h -t 0.18192 -s 2 -d 0 -p ack -e 40 -c 1 -i 14 -a 1 -x {3.0 0.0 -1 ------- null}
r -t 0.18892 -s 2 -d 3 -p tcp -e 1040 -c 1 -i 9 -a 1 -x {0.0 3.0 6 ------- null}
+ -t 0.18892 -s 3 -d 2 -p ack -e 40 -c 1 -i 17 -a 1 -x {3.0 0.0 6 ------- null}
- -t 0.18892 -s 3 -d 2 -p ack -e 40 -c 1 -i 17 -a 1 -x {3.0 0.0 6 ------- null}
h -t 0.18892 -s 3 -d 2 -p ack -e 40 -c 1 -i 17 -a 1 -x {3.0 0.0 -1 ------- null}
r -t 0.1896 -s 0 -d 2 -p tcp -e 1040 -c 1 -i 15 -a 1 -x {0.0 3.0 9 ------- null}
+ -t 0.1896 -s 2 -d 3 -p tcp -e 1040 -c 1 -i 15 -a 1 -x {0.0 3.0 9 ------- null}
r -t 0.19208 -s 2 -d 0 -p ack -e 40 -c 1 -i 14 -a 1 -x {3.0 0.0 5 ------- null}
+ -t 0.19208 -s 0 -d 2 -p tcp -e 1040 -c 1 -i 18 -a 1 -x {0.0 3.0 11 ------- null}
- -t 0.19208 -s 0 -d 2 -p tcp -e 1040 -c 1 -i 18 -a 1 -x {0.0 3.0 11 ------- null}
h -t 0.19208 -s 0 -d 2 -p tcp -e 1040 -c 1 -i 18 -a 1 -x {0.0 3.0 -1 ------- null}
+ -t 0.19208 -s 0 -d 2 -p tcp -e 1040 -c 1 -i 19 -a 1 -x {0.0 3.0 12 ------- null}
r -t 0.19376 -s 0 -d 2 -p tcp -e 1040 -c 1 -i 16 -a 1 -x {0.0 3.0 10 ------- null}
+ -t 0.19376 -s 2 -d 3 -p tcp -e 1040 -c 1 -i 16 -a 1 -x {0.0 3.0 10 ------- null}
- -t 0.19624 -s 0 -d 2 -p tcp -e 1040 -c 1 -i 19 -a 1 -x {0.0 3.0 12 ------- null}
h -t 0.19624 -s 0 -d 2 -p tcp -e 1040 -c 1 -i 19 -a 1 -x {0.0 3.0 -1 ------- null}
- -t 0.19656 -s 2 -d 3 -p tcp -e 1040 -c 1 -i 13 -a 1 -x {0.0 3.0 8 ------- null}
h -t 0.19656 -s 2 -d 3 -p tcp -e 1040 -c 1 -i 13 -a 1 -x {0.0 3.0 -1 ------- null}
r -t 0.19856 -s 3 -d 2 -p ack -e 40 -c 1 -i 17 -a 1 -x {3.0 0.0 6 ------- null}
+ -t 0.19856 -s 2 -d 0 -p ack -e 40 -c 1 -i 17 -a 1 -x {3.0 0.0 6 ------- null}
- -t 0.19856 -s 2 -d 0 -p ack -e 40 -c 1 -i 17 -a 1 -x {3.0 0.0 6 ------- null}
h -t 0.19856 -s 2 -d 0 -p ack -e 40 -c 1 -i 17 -a 1 -x {3.0 0.0 -1 ------- null}
r -t 0.20556 -s 2 -d 3 -p tcp -e 1040 -c 1 -i 12 -a 1 -x {0.0 3.0 7 ------- null}
+ -t 0.20556 -s 3 -d 2 -p ack -e 40 -c 1 -i 20 -a 1 -x {3.0 0.0 7 ------- null}
- -t 0.20556 -s 3 -d 2 -p ack -e 40 -c 1 -i 20 -a 1 -x {3.0 0.0 7 ------- null}
h -t 0.20556 -s 3 -d 2 -p ack -e 40 -c 1 -i 20 -a 1 -x {3.0 0.0 -1 ------- null}
r -t 0.20624 -s 0 -d 2 -p tcp -e 1040 -c 1 -i 18 -a 1 -x {0.0 3.0 11 ------- null}
+ -t 0.20624 -s 2 -d 3 -p tcp -e 1040 -c 1 -i 18 -a 1 -x {0.0 3.0 11 ------- null}
r -t 0.20872 -s 2 -d 0 -p ack -e 40 -c 1 -i 17 -a 1 -x {3.0 0.0 6 ------- null}
+ -t 0.20872 -s 0 -d 2 -p tcp -e 1040 -c 1 -i 21 -a 1 -x {0.0 3.0 13 ------- null}
- -t 0.20872 -s 0 -d 2 -p tcp -e 1040 -c 1 -i 21 -a 1 -x {0.0 3.0 13 ------- null}
h -t 0.20872 -s 0 -d 2 -p tcp -e 1040 -c 1 -i 21 -a 1 -x {0.0 3.0 -1 ------- null}
+ -t 0.20872 -s 0 -d 2 -p tcp -e 1040 -c 1 -i 22 -a 1 -x {0.0 3.0 14 ------- null}
r -t 0.2104 -s 0 -d 2 -p tcp -e 1040 -c 1 -i 19 -a 1 -x {0.0 3.0 12 ------- null}
+ -t 0.2104 -s 2 -d 3 -p tcp -e 1040 -c 1 -i 19 -a 1 -x {0.0 3.0 12 ------- null}
- -t 0.21288 -s 0 -d 2 -p tcp -e 1040 -c 1 -i 22 -a 1 -x {0.0 3.0 14 ------- null}
h -t 0.21288 -s 0 -d 2 -p tcp -e 1040 -c 1 -i 22 -a 1 -x {0.0 3.0 -1 ------- null}
- -t 0.2132 -s 2 -d 3 -p tcp -e 1040 -c 1 -i 15 -a 1 -x {0.0 3.0 9 ------- null}
h -t 0.2132 -s 2 -d 3 -p tcp -e 1040 -c 1 -i 15 -a 1 -x {0.0 3.0 -1 ------- null}
r -t 0.2152 -s 3 -d 2 -p ack -e 40 -c 1 -i 20 -a 1 -x {3.0 0.0 7 ------- null}
+ -t 0.2152 -s 2 -d 0 -p ack -e 40 -c 1 -i 20 -a 1 -x {3.0 0.0 7 ------- null}
- -t 0.2152 -s 2 -d 0 -p ack -e 40 -c 1 -i 20 -a 1 -x {3.0 0.0 7 ------- null}
h -t 0.2152 -s 2 -d 0 -p ack -e 40 -c 1 -i 20 -a 1 -x {3.0 0.0 -1 ------- null}
r -t 0.2222 -s 2 -d 3 -p tcp -e 1040 -c 1 -i 13 -a 1 -x {0.0 3.0 8 ------- null}
+ -t 0.2222 -s 3 -d 2 -p ack -e 40 -c 1 -i 23 -a 1 -x {3.0 0.0 8 ------- null}
- -t 0.2222 -s 3 -d 2 -p ack -e 40 -c 1 -i 23 -a 1 -x {3.0 0.0 8 ------- null}
h -t 0.2222 -s 3 -d 2 -p ack -e 40 -c 1 -i 23 -a 1 -x {3.0 0.0 -1 ------- null}
r -t 0.22288 -s 0 -d 2 -p tcp -e 1040 -c 1 -i 21 -a 1 -x {0.0 3.0 13 ------- null}
+ -t 0.22288 -s 2 -d 3 -p tcp -e 1040 -c 1 -i 21 -a 1 -x {0.0 3.0 13 ------- null}
r -t 0.22536 -s 2 -d 0 -p ack -e 40 -c 1 -i 20 -a 1 -x {3.0 0.0 7 ------- null}
+ -t 0.22536 -s 0 -d 2 -p tcp -e 1040 -c 1 -i 24 -a 1 -x {0.0 3.0 15 ------- null}
- -t 0.22536 -s 0 -d 2 -p tcp -e 1040 -c 1 -i 24 -a 1 -x {0.0 3.0 15 ------- null}
h -t 0.22536 -s 0 -d 2 -p tcp -e 1040 -c 1 -i 24 -a 1 -x {0.0 3.0 -1 ------- null}
+ -t 0.22536 -s 0 -d 2 -p tcp -e 1040 -c 1 -i 25 -a 1 -x {0.0 3.0 16 ------- null}
r -t 0.22704 -s 0 -d 2 -p tcp -e 1040 -c 1 -i 22 -a 1 -x {0.0 3.0 14 ------- null}
+ -t 0.22704 -s 2 -d 3 -p tcp -e 1040 -c 1 -i 22 -a 1 -x {0.0 3.0 14 ------- null}
- -t 0.22952 -s 0 -d 2 -p tcp -e 1040 -c 1 -i 25 -a 1 -x {0.0 3.0 16 ------- null}
h -t 0.22952 -s 0 -d 2 -p tcp -e 1040 -c 1 -i 25 -a 1 -x {0.0 3.0 -1 ------- null}
- -t 0.22984 -s 2 -d 3 -p tcp -e 1040 -c 1 -i 16 -a 1 -x {0.0 3.0 10 ------- null}
h -t 0.22984 -s 2 -d 3 -p tcp -e 1040 -c 1 -i 16 -a 1 -x {0.0 3.0 -1 ------- null}
r -t 0.23184 -s 3 -d 2 -p ack -e 40 -c 1 -i 23 -a 1 -x {3.0 0.0 8 ------- null}
+ -t 0.23184 -s 2 -d 0 -p ack -e 40 -c 1 -i 23 -a 1 -x {3.0 0.0 8 ------- null}
- -t 0.23184 -s 2 -d 0 -p ack -e 40 -c 1 -i 23 -a 1 -x {3.0 0.0 8 ------- null}
h -t 0.23184 -s 2 -d 0 -p ack -e 40 -c 1 -i 23 -a 1 -x {3.0 0.0 -1 ------- null}
r -t 0.23884 -s 2 -d 3 -p tcp -e 1040 -c 1 -i 15 -a 1 -x {0.0 3.0 9 ------- null}
+ -t 0.23884 -s 3 -d 2 -p ack -e 40 -c 1 -i 26 -a 1 -x {3.0 0.0 9 ------- null}
- -t 0.23884 -s 3 -d 2 -p ack -e 40 -c 1 -i 26 -a 1 -x {3.0 0.0 9 ------- null}
h -t 0.23884 -s 3 -d 2 -p ack -e 40 -c 1 -i 26 -a 1 -x {3.0 0.0 -1 ------- null}
r -t 0.23952 -s 0 -d 2 -p tcp -e 1040 -c 1 -i 24 -a 1 -x {0.0 3.0 15 ------- null}
+ -t 0.23952 -s 2 -d 3 -p tcp -e 1040 -c 1 -i 24 -a 1 -x {0.0 3.0 15 ------- null}
r -t 0.242 -s 2 -d 0 -p ack -e 40 -c 1 -i 23 -a 1 -x {3.0 0.0 8 ------- null}
+ -t 0.242 -s 0 -d 2 -p tcp -e 1040 -c 1 -i 27 -a 1 -x {0.0 3.0 17 ------- null}
- -t 0.242 -s 0 -d 2 -p tcp -e 1040 -c 1 -i 27 -a 1 -x {0.0 3.0 17 ------- null}
h -t 0.242 -s 0 -d 2 -p tcp -e 1040 -c 1 -i 27 -a 1 -x {0.0 3.0 -1 ------- null}
+ -t 0.242 -s 0 -d 2 -p tcp -e 1040 -c 1 -i 28 -a 1 -x {0.0 3.0 18 ------- null}
r -t 0.24368 -s 0 -d 2 -p tcp -e 1040 -c 1 -i 25 -a 1 -x {0.0 3.0 16 ------- null}
+ -t 0.24368 -s 2 -d 3 -p tcp -e 1040 -c 1 -i 25 -a 1 -x {0.0 3.0 16 ------- null}
- -t 0.24616 -s 0 -d 2 -p tcp -e 1040 -c 1 -i 28 -a 1 -x {0.0 3.0 18 ------- null}
h -t 0.24616 -s 0 -d 2 -p tcp -e 1040 -c 1 -i 28 -a 1 -x {0.0 3.0 -1 ------- null}
- -t 0.24648 -s 2 -d 3 -p tcp -e 1040 -c 1 -i 18 -a 1 -x {0.0 3.0 11 ------- null}
h -t 0.24648 -s 2 -d 3 -p tcp -e 1040 -c 1 -i 18 -a 1 -x {0.0 3.0 -1 ------- null}
r -t 0.24848 -s 3 -d 2 -p ack -e 40 -c 1 -i 26 -a 1 -x {3.0 0.0 9 ------- null}
+ -t 0.24848 -s 2 -d 0 -p ack -e 40 -c 1 -i 26 -a 1 -x {3.0 0.0 9 ------- null}
- -t 0.24848 -s 2 -d 0 -p ack -e 40 -c 1 -i 26 -a 1 -x {3.0 0.0 9 ------- null}
h -t 0.24848 -s 2 -d 0 -p ack -e 40 -c 1 -i 26 -a 1 -x {3.0 0.0 -1 ------- null}
r -t 0.25548 -s 2 -d 3 -p tcp -e 1040 -c 1 -i 16 -a 1 -x {0.0 3.0 10 ------- null}
+ -t 0.25548 -s 3 -d 2 -p ack -e 40 -c 1 -i 29 -a 1 -x {3.0 0.0 10 ------- null}
- -t 0.25548 -s 3 -d 2 -p ack -e 40 -c 1 -i 29 -a 1 -x {3.0 0.0 10 ------- null}
h -t 0.25548 -s 3 -d 2 -p ack -e 40 -c 1 -i 29 -a 1 -x {3.0 0.0 -1 ------- null}
r -t 0.25616 -s 0 -d 2 -p tcp -e 1040 -c 1 -i 27 -a 1 -x {0.0 3.0 17 ------- null}
+ -t 0.25616 -s 2 -d 3 -p tcp -e 1040 -c 1 -i 27 -a 1 -x {0.0 3.0 17 ------- null}
r -t 0.25864 -s 2 -d 0 -p ack -e 40 -c 1 -i 26 -a 1 -x {3.0 0.0 9 ------- null}
+ -t 0.25864 -s 0 -d 2 -p tcp -e 1040 -c 1 -i 30 -a 1 -x {0.0 3.0 19 ------- null}
- -t 0.25864 -s 0 -d 2 -p tcp -e 1040 -c 1 -i 30 -a 1 -x {0.0 3.0 19 ------- null}
h -t 0.25864 -s 0 -d 2 -p tcp -e 1040 -c 1 -i 30 -a 1 -x {0.0 3.0 -1 ------- null}
+ -t 0.25864 -s 0 -d 2 -p tcp -e 1040 -c 1 -i 31 -a 1 -x {0.0 3.0 20 ------- null}
r -t 0.26032 -s 0 -d 2 -p tcp -e 1040 -c 1 -i 28 -a 1 -x {0.0 3.0 18 ------- null}
+ -t 0.26032 -s 2 -d 3 -p tcp -e 1040 -c 1 -i 28 -a 1 -x {0.0 3.0 18 ------- null}
- -t 0.2628 -s 0 -d 2 -p tcp -e 1040 -c 1 -i 31 -a 1 -x {0.0 3.0 20 ------- null}
h -t 0.2628 -s 0 -d 2 -p tcp -e 1040 -c 1 -i 31 -a 1 -x {0.0 3.0 -1 ------- null}
- -t 0.26312 -s 2 -d 3 -p tcp -e 1040 -c 1 -i 19 -a 1 -x {0.0 3.0 12 ------- null}
h -t 0.26312 -s 2 -d 3 -p tcp -e 1040 -c 1 -i 19 -a 1 -x {0.0 3.0 -1 ------- null}
r -t 0.26512 -s 3 -d 2 -p ack -e 40 -c 1 -i 29 -a 1 -x {3.0 0.0 10 ------- null}
+ -t 0.26512 -s 2 -d 0 -p ack -e 40 -c 1 -i 29 -a 1 -x {3.0 0.0 10 ------- null}
- -t 0.26512 -s 2 -d 0 -p ack -e 40 -c 1 -i 29 -a 1 -x {3.0 0.0 10 ------- null}
h -t 0.26512 -s 2 -d 0 -p ack -e 40 -c 1 -i 29 -a 1 -x {3.0 0.0 -1 ------- null}
r -t 0.27212 -s 2 -d 3 -p tcp -e 1040 -c 1 -i 18 -a 1 -x {0.0 3.0 11 ------- null}
+ -t 0.27212 -s 3 -d 2 -p ack -e 40 -c 1 -i 32 -a 1 -x {3.0 0.0 11 ------- null}
- -t 0.27212 -s 3 -d 2 -p ack -e 40 -c 1 -i 32 -a 1 -x {3.0 0.0 11 ------- null}
h -t 0.27212 -s 3 -d 2 -p ack -e 40 -c 1 -i 32 -a 1 -x {3.0 0.0 -1 ------- null}
r -t 0.2728 -s 0 -d 2 -p tcp -e 1040 -c 1 -i 30 -a 1 -x {0.0 3.0 19 ------- null}
+ -t 0.2728 -s 2 -d 3 -p tcp -e 1040 -c 1 -i 30 -a 1 -x {0.0 3.0 19 ------- null}
r -t 0.27528 -s 2 -d 0 -p ack -e 40 -c 1 -i 29 -a 1 -x {3.0 0.0 10 ------- null}
+ -t 0.27528 -s 0 -d 2 -p tcp -e 1040 -c 1 -i 33 -a 1 -x {0.0 3.0 21 ------- null}
- -t 0.27528 -s 0 -d 2 -p tcp -e 1040 -c 1 -i 33 -a 1 -x {0.0 3.0 21 ------- null}
h -t 0.27528 -s 0 -d 2 -p tcp -e 1040 -c 1 -i 33 -a 1 -x {0.0 3.0 -1 ------- null}
+ -t 0.27528 -s 0 -d 2 -p tcp -e 1040 -c 1 -i 34 -a 1 -x {0.0 3.0 22 ------- null}
r -t 0.27696 -s 0 -d 2 -p tcp -e 1040 -c 1 -i 31 -a 1 -x {0.0 3.0 20 ------- null}
+ -t 0.27696 -s 2 -d 3 -p tcp -e 1040 -c 1 -i 31 -a 1 -x {0.0 3.0 20 ------- null}
- -t 0.27944 -s 0 -d 2 -p tcp -e 1040 -c 1 -i 34 -a 1 -x {0.0 3.0 22 ------- null}
h -t 0.27944 -s 0 -d 2 -p tcp -e 1040 -c 1 -i 34 -a 1 -x {0.0 3.0 -1 ------- null}
- -t 0.27976 -s 2 -d 3 -p tcp -e 1040 -c 1 -i 21 -a 1 -x {0.0 3.0 13 ------- null}
h -t 0.27976 -s 2 -d 3 -p tcp -e 1040 -c 1 -i 21 -a 1 -x {0.0 3.0 -1 ------- null}
r -t 0.28176 -s 3 -d 2 -p ack -e 40 -c 1 -i 32 -a 1 -x {3.0 0.0 11 ------- null}
+ -t 0.28176 -s 2 -d 0 -p ack -e 40 -c 1 -i 32 -a 1 -x {3.0 0.0 11 ------- null}
- -t 0.28176 -s 2 -d 0 -p ack -e 40 -c 1 -i 32 -a 1 -x {3.0 0.0 11 ------- null}
h -t 0.28176 -s 2 -d 0 -p ack -e 40 -c 1 -i 32 -a 1 -x {3.0 0.0 -1 ------- null}
r -t 0.28876 -s 2 -d 3 -p tcp -e 1040 -c 1 -i 19 -a 1 -x {0.0 3.0 12 ------- null}
+ -t 0.28876 -s 3 -d 2 -p ack -e 40 -c 1 -i 35 -a 1 -x {3.0 0.0 12 ------- null}
- -t 0.28876 -s 3 -d 2 -p ack -e 40 -c 1 -i 35 -a 1 -x {3.0 0.0 12 ------- null}
h -t 0.28876 -s 3 -d 2 -p ack -e 40 -c 1 -i 35 -a 1 -x {3.0 0.0 -1 ------- null}
r -t 0.28944 -s 0 -d 2 -p tcp -e 1040 -c 1 -i 33 -a 1 -x {0.0 3.0 21 ------- null}
+ -t 0.28944 -s 2 -d 3 -p tcp -e 1040 -c 1 -i 33 -a 1 -x {0.0 3.0 21 ------- null}
r -t 0.29192 -s 2 -d 0 -p ack -e 40 -c 1 -i 32 -a 1 -x {3.0 0.0 11 ------- null}
+ -t 0.29192 -s 0 -d 2 -p tcp -e 1040 -c 1 -i 36 -a 1 -x {0.0 3.0 23 ------- null}
- -t 0.29192 -s 0 -d 2 -p tcp -e 1040 -c 1 -i 36 -a 1 -x {0.0 3.0 23 ------- null}
h -t 0.29192 -s 0 -d 2 -p tcp -e 1040 -c 1 -i 36 -a 1 -x {0.0 3.0 -1 ------- null}
+ -t 0.29192 -s 0 -d 2 -p tcp -e 1040 -c 1 -i 37 -a 1 -x {0.0 3.0 24 ------- null}
r -t 0.2936 -s 0 -d 2 -p tcp -e 1040 -c 1 -i 34 -a 1 -x {0.0 3.0 22 ------- null}
+ -t 0.2936 -s 2 -d 3 -p tcp -e 1040 -c 1 -i 34 -a 1 -x {0.0 3.0 22 ------- null}
- -t 0.29608 -s 0 -d 2 -p tcp -e 1040 -c 1 -i 37 -a 1 -x {0.0 3.0 24 ------- null}
h -t 0.29608 -s 0 -d 2 -p tcp -e 1040 -c 1 -i 37 -a 1 -x {0.0 3.0 -1 ------- null}
- -t 0.2964 -s 2 -d 3 -p tcp -e 1040 -c 1 -i 22 -a 1 -x {0.0 3.0 14 ------- null}
h -t 0.2964 -s 2 -d 3 -p tcp -e 1040 -c 1 -i 22 -a 1 -x {0.0 3.0 -1 ------- null}
r -t 0.2984 -s 3 -d 2 -p ack -e 40 -c 1 -i 35 -a 1 -x {3.0 0.0 12 ------- null}
+ -t 0.2984 -s 2 -d 0 -p ack -e 40 -c 1 -i 35 -a 1 -x {3.0 0.0 12 ------- null}
- -t 0.2984 -s 2 -d 0 -p ack -e 40 -c 1 -i 35 -a 1 -x {3.0 0.0 12 ------- null}
h -t 0.2984 -s 2 -d 0 -p ack -e 40 -c 1 -i 35 -a 1 -x {3.0 0.0 -1 ------- null}
r -t 0.3054 -s 2 -d 3 -p tcp -e 1040 -c 1 -i 21 -a 1 -x {0.0 3.0 13 ------- null}
+ -t 0.3054 -s 3 -d 2 -p ack -e 40 -c 1 -i 38 -a 1 -x {3.0 0.0 13 ------- null}
- -t 0.3054 -s 3 -d 2 -p ack -e 40 -c 1 -i 38 -a 1 -x {3.0 0.0 13 ------- null}
h -t 0.3054 -s 3 -d 2 -p ack -e 40 -c 1 -i 38 -a 1 -x {3.0 0.0 -1 ------- null}
r -t 0.30608 -s 0 -d 2 -p tcp -e 1040 -c 1 -i 36 -a 1 -x {0.0 3.0 23 ------- null}
+ -t 0.30608 -s 2 -d 3 -p tcp -e 1040 -c 1 -i 36 -a 1 -x {0.0 3.0 23 ------- null}
r -t 0.30856 -s 2 -d 0 -p ack -e 40 -c 1 -i 35 -a 1 -x {3.0 0.0 12 ------- null}
+ -t 0.30856 -s 0 -d 2 -p tcp -e 1040 -c 1 -i 39 -a 1 -x {0.0 3.0 25 ------- null}
- -t 0.30856 -s 0 -d 2 -p tcp -e 1040 -c 1 -i 39 -a 1 -x {0.0 3.0 25 ------- null}
h -t 0.30856 -s 0 -d 2 -p tcp -e 1040 -c 1 -i 39 -a 1 -x {0.0 3.0 -1 ------- null}
+ -t 0.30856 -s 0 -d 2 -p tcp -e 1040 -c 1 -i 40 -a 1 -x {0.0 3.0 26 ------- null}
r -t 0.31024 -s 0 -d 2 -p tcp -e 1040 -c 1 -i 37 -a 1 -x {0.0 3.0 24 ------- null}
+ -t 0.31024 -s 2 -d 3 -p tcp -e 1040 -c 1 -i 37 -a 1 -x {0.0 3.0 24 ------- null}
d -t 0.31024 -s 2 -d 3 -p tcp -e 1040 -c 1 -i 37 -a 1 -x {0.0 3.0 24 ------- null}
- -t 0.31272 -s 0 -d 2 -p tcp -e 1040 -c 1 -i 40 -a 1 -x {0.0 3.0 26 ------- null}
h -t 0.31272 -s 0 -d 2 -p tcp -e 1040 -c 1 -i 40 -a 1 -x {0.0 3.0 -1 ------- null}
- -t 0.31304 -s 2 -d 3 -p tcp -e 1040 -c 1 -i 24 -a 1 -x {0.0 3.0 15 ------- null}
h -t 0.31304 -s 2 -d 3 -p tcp -e 1040 -c 1 -i 24 -a 1 -x {0.0 3.0 -1 ------- null}
r -t 0.31504 -s 3 -d 2 -p ack -e 40 -c 1 -i 38 -a 1 -x {3.0 0.0 13 ------- null}
+ -t 0.31504 -s 2 -d 0 -p ack -e 40 -c 1 -i 38 -a 1 -x {3.0 0.0 13 ------- null}
- -t 0.31504 -s 2 -d 0 -p ack -e 40 -c 1 -i 38 -a 1 -x {3.0 0.0 13 ------- null}
h -t 0.31504 -s 2 -d 0 -p ack -e 40 -c 1 -i 38 -a 1 -x {3.0 0.0 -1 ------- null}
r -t 0.32204 -s 2 -d 3 -p tcp -e 1040 -c 1 -i 22 -a 1 -x {0.0 3.0 14 ------- null}
+ -t 0.32204 -s 3 -d 2 -p ack -e 40 -c 1 -i 41 -a 1 -x {3.0 0.0 14 ------- null}
- -t 0.32204 -s 3 -d 2 -p ack -e 40 -c 1 -i 41 -a 1 -x {3.0 0.0 14 ------- null}
h -t 0.32204 -s 3 -d 2 -p ack -e 40 -c 1 -i 41 -a 1 -x {3.0 0.0 -1 ------- null}
r -t 0.32272 -s 0 -d 2 -p tcp -e 1040 -c 1 -i 39 -a 1 -x {0.0 3.0 25 ------- null}
+ -t 0.32272 -s 2 -d 3 -p tcp -e 1040 -c 1 -i 39 -a 1 -x {0.0 3.0 25 ------- null}
r -t 0.3252 -s 2 -d 0 -p ack -e 40 -c 1 -i 38 -a 1 -x {3.0 0.0 13 ------- null}
+ -t 0.3252 -s 0 -d 2 -p tcp -e 1040 -c 1 -i 42 -a 1 -x {0.0 3.0 27 ------- null}
- -t 0.3252 -s 0 -d 2 -p tcp -e 1040 -c 1 -i 42 -a 1 -x {0.0 3.0 27 ------- null}
h -t 0.3252 -s 0 -d 2 -p tcp -e 1040 -c 1 -i 42 -a 1 -x {0.0 3.0 -1 ------- null}
+ -t 0.3252 -s 0 -d 2 -p tcp -e 1040 -c 1 -i 43 -a 1 -x {0.0 3.0 28 ------- null}
r -t 0.32688 -s 0 -d 2 -p tcp -e 1040 -c 1 -i 40 -a 1 -x {0.0 3.0 26 ------- null}
+ -t 0.32688 -s 2 -d 3 -p tcp -e 1040 -c 1 -i 40 -a 1 -x {0.0 3.0 26 ------- null}
d -t 0.32688 -s 2 -d 3 -p tcp -e 1040 -c 1 -i 40 -a 1 -x {0.0 3.0 26 ------- null}
- -t 0.32936 -s 0 -d 2 -p tcp -e 1040 -c 1 -i 43 -a 1 -x {0.0 3.0 28 ------- null}
h -t 0.32936 -s 0 -d 2 -p tcp -e 1040 -c 1 -i 43 -a 1 -x {0.0 3.0 -1 ------- null}
- -t 0.32968 -s 2 -d 3 -p tcp -e 1040 -c 1 -i 25 -a 1 -x {0.0 3.0 16 ------- null}
h -t 0.32968 -s 2 -d 3 -p tcp -e 1040 -c 1 -i 25 -a 1 -x {0.0 3.0 -1 ------- null}
r -t 0.33168 -s 3 -d 2 -p ack -e 40 -c 1 -i 41 -a 1 -x {3.0 0.0 14 ------- null}
+ -t 0.33168 -s 2 -d 0 -p ack -e 40 -c 1 -i 41 -a 1 -x {3.0 0.0 14 ------- null}
- -t 0.33168 -s 2 -d 0 -p ack -e 40 -c 1 -i 41 -a 1 -x {3.0 0.0 14 ------- null}
h -t 0.33168 -s 2 -d 0 -p ack -e 40 -c 1 -i 41 -a 1 -x {3.0 0.0 -1 ------- null}
r -t 0.33868 -s 2 -d 3 -p tcp -e 1040 -c 1 -i 24 -a 1 -x {0.0 3.0 15 ------- null}
+ -t 0.33868 -s 3 -d 2 -p ack -e 40 -c 1 -i 44 -a 1 -x {3.0 0.0 15 ------- null}
- -t 0.33868 -s 3 -d 2 -p ack -e 40 -c 1 -i 44 -a 1 -x {3.0 0.0 15 ------- null}
h -t 0.33868 -s 3 -d 2 -p ack -e 40 -c 1 -i 44 -a 1 -x {3.0 0.0 -1 ------- null}
r -t 0.33936 -s 0 -d 2 -p tcp -e 1040 -c 1 -i 42 -a 1 -x {0.0 3.0 27 ------- null}
+ -t 0.33936 -s 2 -d 3 -p tcp -e 1040 -c 1 -i 42 -a 1 -x {0.0 3.0 27 ------- null}
r -t 0.34184 -s 2 -d 0 -p ack -e 40 -c 1 -i 41 -a 1 -x {3.0 0.0 14 ------- null}
+ -t 0.34184 -s 0 -d 2 -p tcp -e 1040 -c 1 -i 45 -a 1 -x {0.0 3.0 29 ------- null}
- -t 0.34184 -s 0 -d 2 -p tcp -e 1040 -c 1 -i 45 -a 1 -x {0.0 3.0 29 ------- null}
h -t 0.34184 -s 0 -d 2 -p tcp -e 1040 -c 1 -i 45 -a 1 -x {0.0 3.0 -1 ------- null}
+ -t 0.34184 -s 0 -d 2 -p tcp -e 1040 -c 1 -i 46 -a 1 -x {0.0 3.0 30 ------- null}
r -t 0.34352 -s 0 -d 2 -p tcp -e 1040 -c 1 -i 43 -a 1 -x {0.0 3.0 28 ------- null}
+ -t 0.34352 -s 2 -d 3 -p tcp -e 1040 -c 1 -i 43 -a 1 -x {0.0 3.0 28 ------- null}
d -t 0.34352 -s 2 -d 3 -p tcp -e 1040 -c 1 -i 43 -a 1 -x {0.0 3.0 28 ------- null}
- -t 0.346 -s 0 -d 2 -p tcp -e 1040 -c 1 -i 46 -a 1 -x {0.0 3.0 30 ------- null}
h -t 0.346 -s 0 -d 2 -p tcp -e 1040 -c 1 -i 46 -a 1 -x {0.0 3.0 -1 ------- null}
- -t 0.34632 -s 2 -d 3 -p tcp -e 1040 -c 1 -i 27 -a 1 -x {0.0 3.0 17 ------- null}
h -t 0.34632 -s 2 -d 3 -p tcp -e 1040 -c 1 -i 27 -a 1 -x {0.0 3.0 -1 ------- null}
r -t 0.34832 -s 3 -d 2 -p ack -e 40 -c 1 -i 44 -a 1 -x {3.0 0.0 15 ------- null}
+ -t 0.34832 -s 2 -d 0 -p ack -e 40 -c 1 -i 44 -a 1 -x {3.0 0.0 15 ------- null}
- -t 0.34832 -s 2 -d 0 -p ack -e 40 -c 1 -i 44 -a 1 -x {3.0 0.0 15 ------- null}
h -t 0.34832 -s 2 -d 0 -p ack -e 40 -c 1 -i 44 -a 1 -x {3.0 0.0 -1 ------- null}
r -t 0.35532 -s 2 -d 3 -p tcp -e 1040 -c 1 -i 25 -a 1 -x {0.0 3.0 16 ------- null}
+ -t 0.35532 -s 3 -d 2 -p ack -e 40 -c 1 -i 47 -a 1 -x {3.0 0.0 16 ------- null}
- -t 0.35532 -s 3 -d 2 -p ack -e 40 -c 1 -i 47 -a 1 -x {3.0 0.0 16 ------- null}
h -t 0.35532 -s 3 -d 2 -p ack -e 40 -c 1 -i 47 -a 1 -x {3.0 0.0 -1 ------- null}
r -t 0.356 -s 0 -d 2 -p tcp -e 1040 -c 1 -i 45 -a 1 -x {0.0 3.0 29 ------- null}
+ -t 0.356 -s 2 -d 3 -p tcp -e 1040 -c 1 -i 45 -a 1 -x {0.0 3.0 29 ------- null}
r -t 0.35848 -s 2 -d 0 -p ack -e 40 -c 1 -i 44 -a 1 -x {3.0 0.0 15 ------- null}
+ -t 0.35848 -s 0 -d 2 -p tcp -e 1040 -c 1 -i 48 -a 1 -x {0.0 3.0 31 ------- null}
- -t 0.35848 -s 0 -d 2 -p tcp -e 1040 -c 1 -i 48 -a 1 -x {0.0 3.0 31 ------- null}
h -t 0.35848 -s 0 -d 2 -p tcp -e 1040 -c 1 -i 48 -a 1 -x {0.0 3.0 -1 ------- null}
+ -t 0.35848 -s 0 -d 2 -p tcp -e 1040 -c 1 -i 49 -a 1 -x {0.0 3.0 32 ------- null}
r -t 0.36016 -s 0 -d 2 -p tcp -e 1040 -c 1 -i 46 -a 1 -x {0.0 3.0 30 ------- null}
+ -t 0.36016 -s 2 -d 3 -p tcp -e 1040 -c 1 -i 46 -a 1 -x {0.0 3.0 30 ------- null}
d -t 0.36016 -s 2 -d 3 -p tcp -e 1040 -c 1 -i 46 -a 1 -x {0.0 3.0 30 ------- null}
- -t 0.36264 -s 0 -d 2 -p tcp -e 1040 -c 1 -i 49 -a 1 -x {0.0 3.0 32 ------- null}
h -t 0.36264 -s 0 -d 2 -p tcp -e 1040 -c 1 -i 49 -a 1 -x {0.0 3.0 -1 ------- null}
- -t 0.36296 -s 2 -d 3 -p tcp -e 1040 -c 1 -i 28 -a 1 -x {0.0 3.0 18 ------- null}
h -t 0.36296 -s 2 -d 3 -p tcp -e 1040 -c 1 -i 28 -a 1 -x {0.0 3.0 -1 ------- null}
r -t 0.36496 -s 3 -d 2 -p ack -e 40 -c 1 -i 47 -a 1 -x {3.0 0.0 16 ------- null}
+ -t 0.36496 -s 2 -d 0 -p ack -e 40 -c 1 -i 47 -a 1 -x {3.0 0.0 16 ------- null}
- -t 0.36496 -s 2 -d 0 -p ack -e 40 -c 1 -i 47 -a 1 -x {3.0 0.0 16 ------- null}
h -t 0.36496 -s 2 -d 0 -p ack -e 40 -c 1 -i 47 -a 1 -x {3.0 0.0 -1 ------- null}
r -t 0.37196 -s 2 -d 3 -p tcp -e 1040 -c 1 -i 27 -a 1 -x {0.0 3.0 17 ------- null}
+ -t 0.37196 -s 3 -d 2 -p ack -e 40 -c 1 -i 50 -a 1 -x {3.0 0.0 17 ------- null}
- -t 0.37196 -s 3 -d 2 -p ack -e 40 -c 1 -i 50 -a 1 -x {3.0 0.0 17 ------- null}
h -t 0.37196 -s 3 -d 2 -p ack -e 40 -c 1 -i 50 -a 1 -x {3.0 0.0 -1 ------- null}
r -t 0.37264 -s 0 -d 2 -p tcp -e 1040 -c 1 -i 48 -a 1 -x {0.0 3.0 31 ------- null}
+ -t 0.37264 -s 2 -d 3 -p tcp -e 1040 -c 1 -i 48 -a 1 -x {0.0 3.0 31 ------- null}
r -t 0.37512 -s 2 -d 0 -p ack -e 40 -c 1 -i 47 -a 1 -x {3.0 0.0 16 ------- null}
+ -t 0.37512 -s 0 -d 2 -p tcp -e 1040 -c 1 -i 51 -a 1 -x {0.0 3.0 33 ------- null}