+ 0 0 2 tcp 40 ------- 1 0.0 3.0 0 0
- 0 0 2 tcp 40 ------- 1 0.0 3.0 0 0
r 0.01016 0 2 tcp 40 ------- 1 0.0 3.0 0 0
+ 0.01016 2 3 tcp 40 ------- 1 0.0 3.0 0 0
- 0.01016 2 3 tcp 40 ------- 1 0.0 3.0 0 0
r 0.0198 2 3 tcp 40 ------- 1 0.0 3.0 0 0
+ 0.0198 3 2 ack 40 ------- 1 3.0 0.0 0 1
- 0.0198 3 2 ack 40 ------- 1 3.0 0.0 0 1
r 0.02944 3 2 ack 40 ------- 1 3.0 0.0 0 1
+ 0.02944 2 0 ack 40 ------- 1 3.0 0.0 0 1
- 0.02944 2 0 ack 40 ------- 1 3.0 0.0 0 1
r 0.0396 2 0 ack 40 ------- 1 3.0 0.0 0 1
+ 0.0396 0 2 tcp 1040 ------- 1 0.0 3.0 1 2
- 0.0396 0 2 tcp 1040 ------- 1 0.0 3.0 1 2
+ 0.0396 0 2 tcp 1040 ------- 1 0.0 3.0 2 3
- 0.04376 0 2 tcp 1040 ------- 1 0.0 3.0 2 3
r 0.05376 0 2 tcp 1040 ------- 1 0.0 3.0 1 2
+ 0.05376 2 3 tcp 1040 ------- 1 0.0 3.0 1 2
- 0.05376 2 3 tcp 1040 ------- 1 0.0 3.0 1 2
r 0.05792 0 2 tcp 1040 ------- 1 0.0 3.0 2 3
+ 0.05792 2 3 tcp 1040 ------- 1 0.0 3.0 2 3
- 0.0704 2 3 tcp 1040 ------- 1 0.0 3.0 2 3
r 0.0794 2 3 tcp 1040 ------- 1 0.0 3.0 1 2
+ 0.0794 3 2 ack 40 ------- 1 3.0 0.0 1 4
- 0.0794 3 2 ack 40 ------- 1 3.0 0.0 1 4
r 0.08904 3 2 ack 40 ------- 1 3.0 0.0 1 4
+ 0.08904 2 0 ack 40 ------- 1 3.0 0.0 1 4
- 0.08904 2 0 ack 40 ------- 1 3.0 0.0 1 4
r 0.09604 2 3 tcp 1040 ------- 1 0.0 3.0 2 3
+ 0.09604 3 2 ack 40 ------- 1 3.0 0.0 2 5
- 0.09604 3 2 ack 40 ------- 1 3.0 0.0 2 5
r 0.0992 2 0 ack 40 ------- 1 3.0 0.0 1 4
+ 0.0992 0 2 tcp 1040 ------- 1 0.0 3.0 3 6
- 0.0992 0 2 tcp 1040 ------- 1 0.0 3.0 3 6
+ 0.0992 0 2 tcp 1040 ------- 1 0.0 3.0 4 7
- 0.10336 0 2 tcp 1040 ------- 1 0.0 3.0 4 7
r 0.10568 3 2 ack 40 ------- 1 3.0 0.0 2 5
+ 0.10568 2 0 ack 40 ------- 1 3.0 0.0 2 5
- 0.10568 2 0 ack 40 ------- 1 3.0 0.0 2 5
r 0.11336 0 2 tcp 1040 ------- 1 0.0 3.0 3 6
+ 0.11336 2 3 tcp 1040 ------- 1 0.0 3.0 3 6
- 0.11336 2 3 tcp 1040 ------- 1 0.0 3.0 3 6
r 0.11584 2 0 ack 40 ------- 1 3.0 0.0 2 5
+ 0.11584 0 2 tcp 1040 ------- 1 0.0 3.0 5 8
- 0.11584 0 2 tcp 1040 ------- 1 0.0 3.0 5 8
+ 0.11584 0 2 tcp 1040 ------- 1 0.0 3.0 6 9
r 0.11752 0 2 tcp 1040 ------- 1 0.0 3.0 4 7
+ 0.11752 2 3 tcp 1040 ------- 1 0.0 3.0 4 7
- 0.12 0 2 tcp 1040 ------- 1 0.0 3.0 6 9
- 0.13 2 3 tcp 1040 ------- 1 0.0 3.0 4 7
r 0.13 0 2 tcp 1040 ------- 1 0.0 3.0 5 8
+ 0.13 2 3 tcp 1040 ------- 1 0.0 3.0 5 8
r 0.13416 0 2 tcp 1040 ------- 1 0.0 3.0 6 9
+ 0.13416 2 3 tcp 1040 ------- 1 0.0 3.0 6 9
r 0.139 2 3 tcp 1040 ------- 1 0.0 3.0 3 6
+ 0.139 3 2 ack 40 ------- 1 3.0 0.0 3 10
- 0.139 3 2 ack 40 ------- 1 3.0 0.0 3 10
- 0.14664 2 3 tcp 1040 ------- 1 0.0 3.0 5 8
r 0.14864 3 2 ack 40 ------- 1 3.0 0.0 3 10
+ 0.14864 2 0 ack 40 ------- 1 3.0 0.0 3 10
- 0.14864 2 0 ack 40 ------- 1 3.0 0.0 3 10
r 0.15564 2 3 tcp 1040 ------- 1 0.0 3.0 4 7
+ 0.15564 3 2 ack 40 ------- 1 3.0 0.0 4 11
- 0.15564 3 2 ack 40 ------- 1 3.0 0.0 4 11
r 0.1588 2 0 ack 40 ------- 1 3.0 0.0 3 10
+ 0.1588 0 2 tcp 1040 ------- 1 0.0 3.0 7 12
- 0.1588 0 2 tcp 1040 ------- 1 0.0 3.0 7 12
+ 0.1588 0 2 tcp 1040 ------- 1 0.0 3.0 8 13
- 0.16296 0 2 tcp 1040 ------- 1 0.0 3.0 8 13
- 0.16328 2 3 tcp 1040 ------- 1 0.0 3.0 6 9
r 0.16528 3 2 ack 40 ------- 1 3.0 0.0 4 11
+ 0.16528 2 0 ack 40 ------- 1 3.0 0.0 4 11
- 0.16528 2 0 ack 40 ------- 1 3.0 0.0 4 11
r 0.17228 2 3 tcp 1040 ------- 1 0.0 3.0 5 8
+ 0.17228 3 2 ack 40 ------- 1 3.0 0.0 5 14
- 0.17228 3 2 ack 40 ------- 1 3.0 0.0 5 14
r 0.17296 0 2 tcp 1040 ------- 1 0.0 3.0 7 12
+ 0.17296 2 3 tcp 1040 ------- 1 0.0 3.0 7 12
r 0.17544 2 0 ack 40 ------- 1 3.0 0.0 4 11
+ 0.17544 0 2 tcp 1040 ------- 1 0.0 3.0 9 15
- 0.17544 0 2 tcp 1040 ------- 1 0.0 3.0 9 15
+ 0.17544 0 2 tcp 1040 ------- 1 0.0 3.0 10 16
r 0.17712 0 2 tcp 1040 ------- 1 0.0 3.0 8 13
+ 0.17712 2 3 tcp 1040 ------- 1 0.0 3.0 8 13
- 0.1796 0 2 tcp 1040 ------- 1 0.0 3.0 10 16
- 0.17992 2 3 tcp 1040 ------- 1 0.0 3.0 7 12
r 0.18192 3 2 ack 40 ------- 1 3.0 0.0 5 14
+ 0.18192 2 0 ack 40 ------- 1 3.0 0.0 5 14
- 0.18192 2 0 ack 40 ------- 1 3.0 0.0 5 14
r 0.18892 2 3 tcp 1040 ------- 1 0.0 3.0 6 9
+ 0.18892 3 2 ack 40 ------- 1 3.0 0.0 6 17
- 0.18892 3 2 ack 40 ------- 1 3.0 0.0 6 17
r 0.1896 0 2 tcp 1040 ------- 1 0.0 3.0 9 15
+ 0.1896 2 3 tcp 1040 ------- 1 0.0 3.0 9 15
r 0.19208 2 0 ack 40 ------- 1 3.0 0.0 5 14
+ 0.19208 0 2 tcp 1040 ------- 1 0.0 3.0 11 18
- 0.19208 0 2 tcp 1040 ------- 1 0.0 3.0 11 18
+ 0.19208 0 2 tcp 1040 ------- 1 0.0 3.0 12 19
r 0.19376 0 2 tcp 1040 ------- 1 0.0 3.0 10 16
+ 0.19376 2 3 tcp 1040 ------- 1 0.0 3.0 10 16
- 0.19624 0 2 tcp 1040 ------- 1 0.0 3.0 12 19
- 0.19656 2 3 tcp 1040 ------- 1 0.0 3.0 8 13
r 0.19856 3 2 ack 40 ------- 1 3.0 0.0 6 17
+ 0.19856 2 0 ack 40 ------- 1 3.0 0.0 6 17
- 0.19856 2 0 ack 40 ------- 1 3.0 0.0 6 17
r 0.20556 2 3 tcp 1040 ------- 1 0.0 3.0 7 12
+ 0.20556 3 2 ack 40 ------- 1 3.0 0.0 7 20
- 0.20556 3 2 ack 40 ------- 1 3.0 0.0 7 20
r 0.20624 0 2 tcp 1040 ------- 1 0.0 3.0 11 18
+ 0.20624 2 3 tcp 1040 ------- 1 0.0 3.0 11 18
r 0.20872 2 0 ack 40 ------- 1 3.0 0.0 6 17
+ 0.20872 0 2 tcp 1040 ------- 1 0.0 3.0 13 21
- 0.20872 0 2 tcp 1040 ------- 1 0.0 3.0 13 21
+ 0.20872 0 2 tcp 1040 ------- 1 0.0 3.0 14 22
r 0.2104 0 2 tcp 1040 ------- 1 0.0 3.0 12 19
+ 0.2104 2 3 tcp 1040 ------- 1 0.0 3.0 12 19
- 0.21288 0 2 tcp 1040 ------- 1 0.0 3.0 14 22
- 0.2132 2 3 tcp 1040 ------- 1 0.0 3.0 9 15
r 0.2152 3 2 ack 40 ------- 1 3.0 0.0 7 20
+ 0.2152 2 0 ack 40 ------- 1 3.0 0.0 7 20
- 0.2152 2 0 ack 40 ------- 1 3.0 0.0 7 20
r 0.2222 2 3 tcp 1040 ------- 1 0.0 3.0 8 13
+ 0.2222 3 2 ack 40 ------- 1 3.0 0.0 8 23
- 0.2222 3 2 ack 40 ------- 1 3.0 0.0 8 23
r 0.22288 0 2 tcp 1040 ------- 1 0.0 3.0 13 21
+ 0.22288 2 3 tcp 1040 ------- 1 0.0 3.0 13 21
r 0.22536 2 0 ack 40 ------- 1 3.0 0.0 7 20
+ 0.22536 0 2 tcp 1040 ------- 1 0.0 3.0 15 24
- 0.22536 0 2 tcp 1040 ------- 1 0.0 3.0 15 24
+ 0.22536 0 2 tcp 1040 ------- 1 0.0 3.0 16 25
r 0.22704 0 2 tcp 1040 ------- 1 0.0 3.0 14 22
+ 0.22704 2 3 tcp 1040 ------- 1 0.0 3.0 14 22
- 0.22952 0 2 tcp 1040 ------- 1 0.0 3.0 16 25
- 0.22984 2 3 tcp 1040 ------- 1 0.0 3.0 10 16
r 0.23184 3 2 ack 40 ------- 1 3.0 0.0 8 23
+ 0.23184 2 0 ack 40 ------- 1 3.0 0.0 8 23
- 0.23184 2 0 ack 40 ------- 1 3.0 0.0 8 23
r 0.23884 2 3 tcp 1040 ------- 1 0.0 3.0 9 15
+ 0.23884 3 2 ack 40 ------- 1 3.0 0.0 9 26
- 0.23884 3 2 ack 40 ------- 1 3.0 0.0 9 26
r 0.23952 0 2 tcp 1040 ------- 1 0.0 3.0 15 24
+ 0.23952 2 3 tcp 1040 ------- 1 0.0 3.0 15 24
r 0.242 2 0 ack 40 ------- 1 3.0 0.0 8 23
+ 0.242 0 2 tcp 1040 ------- 1 0.0 3.0 17 27
- 0.242 0 2 tcp 1040 ------- 1 0.0 3.0 17 27
+ 0.242 0 2 tcp 1040 ------- 1 0.0 3.0 18 28
r 0.24368 0 2 tcp 1040 ------- 1 0.0 3.0 16 25
+ 0.24368 2 3 tcp 1040 ------- 1 0.0 3.0 16 25
- 0.24616 0 2 tcp 1040 ------- 1 0.0 3.0 18 28
- 0.24648 2 3 tcp 1040 ------- 1 0.0 3.0 11 18
r 0.24848 3 2 ack 40 ------- 1 3.0 0.0 9 26
+ 0.24848 2 0 ack 40 ------- 1 3.0 0.0 9 26
- 0.24848 2 0 ack 40 ------- 1 3.0 0.0 9 26
r 0.25548 2 3 tcp 1040 ------- 1 0.0 3.0 10 16
+ 0.25548 3 2 ack 40 ------- 1 3.0 0.0 10 29
- 0.25548 3 2 ack 40 ------- 1 3.0 0.0 10 29
r 0.25616 0 2 tcp 1040 ------- 1 0.0 3.0 17 27
+ 0.25616 2 3 tcp 1040 ------- 1 0.0 3.0 17 27
r 0.25864 2 0 ack 40 ------- 1 3.0 0.0 9 26
+ 0.25864 0 2 tcp 1040 ------- 1 0.0 3.0 19 30
- 0.25864 0 2 tcp 1040 ------- 1 0.0 3.0 19 30
+ 0.25864 0 2 tcp 1040 ------- 1 0.0 3.0 20 31
r 0.26032 0 2 tcp 1040 ------- 1 0.0 3.0 18 28
+ 0.26032 2 3 tcp 1040 ------- 1 0.0 3.0 18 28
- 0.2628 0 2 tcp 1040 ------- 1 0.0 3.0 20 31
- 0.26312 2 3 tcp 1040 ------- 1 0.0 3.0 12 19
r 0.26512 3 2 ack 40 ------- 1 3.0 0.0 10 29
+ 0.26512 2 0 ack 40 ------- 1 3.0 0.0 10 29
- 0.26512 2 0 ack 40 ------- 1 3.0 0.0 10 29
r 0.27212 2 3 tcp 1040 ------- 1 0.0 3.0 11 18
+ 0.27212 3 2 ack 40 ------- 1 3.0 0.0 11 32
- 0.27212 3 2 ack 40 ------- 1 3.0 0.0 11 32
r 0.2728 0 2 tcp 1040 ------- 1 0.0 3.0 19 30
+ 0.2728 2 3 tcp 1040 ------- 1 0.0 3.0 19 30
r 0.27528 2 0 ack 40 ------- 1 3.0 0.0 10 29
+ 0.27528 0 2 tcp 1040 ------- 1 0.0 3.0 21 33
- 0.27528 0 2 tcp 1040 ------- 1 0.0 3.0 21 33
+ 0.27528 0 2 tcp 1040 ------- 1 0.0 3.0 22 34
r 0.27696 0 2 tcp 1040 ------- 1 0.0 3.0 20 31
+ 0.27696 2 3 tcp 1040 ------- 1 0.0 3.0 20 31
- 0.27944 0 2 tcp 1040 ------- 1 0.0 3.0 22 34
- 0.27976 2 3 tcp 1040 ------- 1 0.0 3.0 13 21
r 0.28176 3 2 ack 40 ------- 1 3.0 0.0 11 32
+ 0.28176 2 0 ack 40 ------- 1 3.0 0.0 11 32
- 0.28176 2 0 ack 40 ------- 1 3.0 0.0 11 32
r 0.28876 2 3 tcp 1040 ------- 1 0.0 3.0 12 19
+ 0.28876 3 2 ack 40 ------- 1 3.0 0.0 12 35
- 0.28876 3 2 ack 40 ------- 1 3.0 0.0 12 35
r 0.28944 0 2 tcp 1040 ------- 1 0.0 3.0 21 33
+ 0.28944 2 3 tcp 1040 ------- 1 0.0 3.0 21 33
r 0.29192 2 0 ack 40 ------- 1 3.0 0.0 11 32
+ 0.29192 0 2 tcp 1040 ------- 1 0.0 3.0 23 36
- 0.29192 0 2 tcp 1040 ------- 1 0.0 3.0 23 36
+ 0.29192 0 2 tcp 1040 ------- 1 0.0 3.0 24 37
r 0.2936 0 2 tcp 1040 ------- 1 0.0 3.0 22 34
+ 0.2936 2 3 tcp 1040 ------- 1 0.0 3.0 22 34
- 0.29608 0 2 tcp 1040 ------- 1 0.0 3.0 24 37
- 0.2964 2 3 tcp 1040 ------- 1 0.0 3.0 14 22
r 0.2984 3 2 ack 40 ------- 1 3.0 0.0 12 35
+ 0.2984 2 0 ack 40 ------- 1 3.0 0.0 12 35
- 0.2984 2 0 ack 40 ------- 1 3.0 0.0 12 35
r 0.3054 2 3 tcp 1040 ------- 1 0.0 3.0 13 21
+ 0.3054 3 2 ack 40 ------- 1 3.0 0.0 13 38
- 0.3054 3 2 ack 40 ------- 1 3.0 0.0 13 38
r 0.30608 0 2 tcp 1040 ------- 1 0.0 3.0 23 36
+ 0.30608 2 3 tcp 1040 ------- 1 0.0 3.0 23 36
r 0.30856 2 0 ack 40 ------- 1 3.0 0.0 12 35
+ 0.30856 0 2 tcp 1040 ------- 1 0.0 3.0 25 39
- 0.30856 0 2 tcp 1040 ------- 1 0.0 3.0 25 39
+ 0.30856 0 2 tcp 1040 ------- 1 0.0 3.0 26 40
r 0.31024 0 2 tcp 1040 ------- 1 0.0 3.0 24 37
+ 0.31024 2 3 tcp 1040 ------- 1 0.0 3.0 24 37
d 0.31024 2 3 tcp 1040 ------- 1 0.0 3.0 24 37
- 0.31272 0 2 tcp 1040 ------- 1 0.0 3.0 26 40
- 0.31304 2 3 tcp 1040 ------- 1 0.0 3.0 15 24
r 0.31504 3 2 ack 40 ------- 1 3.0 0.0 13 38
+ 0.31504 2 0 ack 40 ------- 1 3.0 0.0 13 38
- 0.31504 2 0 ack 40 ------- 1 3.0 0.0 13 38
r 0.32204 2 3 tcp 1040 ------- 1 0.0 3.0 14 22
+ 0.32204 3 2 ack 40 ------- 1 3.0 0.0 14 41
- 0.32204 3 2 ack 40 ------- 1 3.0 0.0 14 41
r 0.32272 0 2 tcp 1040 ------- 1 0.0 3.0 25 39
+ 0.32272 2 3 tcp 1040 ------- 1 0.0 3.0 25 39
r 0.3252 2 0 ack 40 ------- 1 3.0 0.0 13 38
+ 0.3252 0 2 tcp 1040 ------- 1 0.0 3.0 27 42
- 0.3252 0 2 tcp 1040 ------- 1 0.0 3.0 27 42
+ 0.3252 0 2 tcp 1040 ------- 1 0.0 3.0 28 43
r 0.32688 0 2 tcp 1040 ------- 1 0.0 3.0 26 40
+ 0.32688 2 3 tcp 1040 ------- 1 0.0 3.0 26 40
d 0.32688 2 3 tcp 1040 ------- 1 0.0 3.0 26 40
- 0.32936 0 2 tcp 1040 ------- 1 0.0 3.0 28 43
- 0.32968 2 3 tcp 1040 ------- 1 0.0 3.0 16 25
r 0.33168 3 2 ack 40 ------- 1 3.0 0.0 14 41
+ 0.33168 2 0 ack 40 ------- 1 3.0 0.0 14 41
- 0.33168 2 0 ack 40 ------- 1 3.0 0.0 14 41
r 0.33868 2 3 tcp 1040 ------- 1 0.0 3.0 15 24
+ 0.33868 3 2 ack 40 ------- 1 3.0 0.0 15 44
- 0.33868 3 2 ack 40 ------- 1 3.0 0.0 15 44
r 0.33936 0 2 tcp 1040 ------- 1 0.0 3.0 27 42
+ 0.33936 2 3 tcp 1040 ------- 1 0.0 3.0 27 42
r 0.34184 2 0 ack 40 ------- 1 3.0 0.0 14 41
+ 0.34184 0 2 tcp 1040 ------- 1 0.0 3.0 29 45
- 0.34184 0 2 tcp 1040 ------- 1 0.0 3.0 29 45
+ 0.34184 0 2 tcp 1040 ------- 1 0.0 3.0 30 46
r 0.34352 0 2 tcp 1040 ------- 1 0.0 3.0 28 43
+ 0.34352 2 3 tcp 1040 ------- 1 0.0 3.0 28 43
d 0.34352 2 3 tcp 1040 ------- 1 0.0 3.0 28 43
- 0.346 0 2 tcp 1040 ------- 1 0.0 3.0 30 46
- 0.34632 2 3 tcp 1040 ------- 1 0.0 3.0 17 27
r 0.34832 3 2 ack 40 ------- 1 3.0 0.0 15 44
+ 0.34832 2 0 ack 40 ------- 1 3.0 0.0 15 44
- 0.34832 2 0 ack 40 ------- 1 3.0 0.0 15 44
r 0.35532 2 3 tcp 1040 ------- 1 0.0 3.0 16 25
+ 0.35532 3 2 ack 40 ------- 1 3.0 0.0 16 47
- 0.35532 3 2 ack 40 ------- 1 3.0 0.0 16 47
r 0.356 0 2 tcp 1040 ------- 1 0.0 3.0 29 45
+ 0.356 2 3 tcp 1040 ------- 1 0.0 3.0 29 45
r 0.35848 2 0 ack 40 ------- 1 3.0 0.0 15 44
+ 0.35848 0 2 tcp 1040 ------- 1 0.0 3.0 31 48
- 0.35848 0 2 tcp 1040 ------- 1 0.0 3.0 31 48
+ 0.35848 0 2 tcp 1040 ------- 1 0.0 3.0 32 49
r 0.36016 0 2 tcp 1040 ------- 1 0.0 3.0 30 46
+ 0.36016 2 3 tcp 1040 ------- 1 0.0 3.0 30 46
d 0.36016 2 3 tcp 1040 ------- 1 0.0 3.0 30 46
- 0.36264 0 2 tcp 1040 ------- 1 0.0 3.0 32 49
- 0.36296 2 3 tcp 1040 ------- 1 0.0 3.0 18 28
r 0.36496 3 2 ack 40 ------- 1 3.0 0.0 16 47
+ 0.36496 2 0 ack 40 ------- 1 3.0 0.0 16 47
- 0.36496 2 0 ack 40 ------- 1 3.0 0.0 16 47
r 0.37196 2 3 tcp 1040 ------- 1 0.0 3.0 17 27
+ 0.37196 3 2 ack 40 ------- 1 3.0 0.0 17 50
- 0.37196 3 2 ack 40 ------- 1 3.0 0.0 17 50
r 0.37264 0 2 tcp 1040 ------- 1 0.0 3.0 31 48
+ 0.37264 2 3 tcp 1040 ------- 1 0.0 3.0 31 48
r 0.37512 2 0 ack 40 ------- 1 3.0 0.0 16 47
+ 0.37512 0 2 tcp 1040 ------- 1 0.0 3.0 33 51
- 0.37512 0 2 tcp 1040 ------- 1 0.0 3.0 33 51
+ 0.37512 0 2 tcp 1040 ------- 1 0.0 3.0 34 52
r 0.3768 0 2 tcp 1040 ------- 1 0.0 3.0 32 49
+ 0.3768 2 3 tcp 1040 ------- 1 0.0 3.0 32 49
d 0.3768 2 3 tcp 1040 ------- 1 0.0 3.0 32 49
- 0.37928 0 2 tcp 1040 ------- 1 0.0 3.0 34 52
- 0.3796 2 3 tcp 1040 ------- 1 0.0 3.0 19 30
r 0.3816 3 2 ack 40 ------- 1 3.0 0.0 17 50
+ 0.3816 2 0 ack 40 ------- 1 3.0 0.0 17 50
- 0.3816 2 0 ack 40 ------- 1 3.0 0.0 17 50
r 0.3886 2 3 tcp 1040 ------- 1 0.0 3.0 18 28
+ 0.3886 3 2 ack 40 ------- 1 3.0 0.0 18 53
- 0.3886 3 2 ack 40 ------- 1 3.0 0.0 18 53
r 0.38928 0 2 tcp 1040 ------- 1 0.0 3.0 33 51
+ 0.38928 2 3 tcp 1040 ------- 1 0.0 3.0 33 51
r 0.39176 2 0 ack 40 ------- 1 3.0 0.0 17 50
+ 0.39176 0 2 tcp 1040 ------- 1 0.0 3.0 35 54
- 0.39176 0 2 tcp 1040 ------- 1 0.0 3.0 35 54
+ 0.39176 0 2 tcp 1040 ------- 1 0.0 3.0 36 55
r 0.39344 0 2 tcp 1040 ------- 1 0.0 3.0 34 52
+ 0.39344 2 3 tcp 1040 ------- 1 0.0 3.0 34 52
d 0.39344 2 3 tcp 1040 ------- 1 0.0 3.0 34 52
- 0.39592 0 2 tcp 1040 ------- 1 0.0 3.0 36 55
- 0.39624 2 3 tcp 1040 ------- 1 0.0 3.0 20 31
r 0.39824 3 2 ack 40 ------- 1 3.0 0.0 18 53
+ 0.39824 2 0 ack 40 ------- 1 3.0 0.0 18 53
- 0.39824 2 0 ack 40 ------- 1 3.0 0.0 18 53
r 0.40524 2 3 tcp 1040 ------- 1 0.0 3.0 19 30
+ 0.40524 3 2 ack 40 ------- 1 3.0 0.0 19 56
- 0.40524 3 2 ack 40 ------- 1 3.0 0.0 19 56
r 0.40592 0 2 tcp 1040 ------- 1 0.0 3.0 35 54
+ 0.40592 2 3 tcp 1040 ------- 1 0.0 3.0 35 54
r 0.4084 2 0 ack 40 ------- 1 3.0 0.0 18 53
+ 0.4084 0 2 tcp 1040 ------- 1 0.0 3.0 37 57
- 0.4084 0 2 tcp 1040 ------- 1 0.0 3.0 37 57
+ 0.4084 0 2 tcp 1040 ------- 1 0.0 3.0 38 58
r 0.41008 0 2 tcp 1040 ------- 1 0.0 3.0 36 55
+ 0.41008 2 3 tcp 1040 ------- 1 0.0 3.0 36 55
d 0.41008 2 3 tcp 1040 ------- 1 0.0 3.0 36 55
- 0.41256 0 2 tcp 1040 ------- 1 0.0 3.0 38 58
- 0.41288 2 3 tcp 1040 ------- 1 0.0 3.0 21 33
r 0.41488 3 2 ack 40 ------- 1 3.0 0.0 19 56
+ 0.41488 2 0 ack 40 ------- 1 3.0 0.0 19 56
- 0.41488 2 0 ack 40 ------- 1 3.0 0.0 19 56
r 0.42188 2 3 tcp 1040 ------- 1 0.0 3.0 20 31
+ 0.42188 3 2 ack 40 ------- 1 3.0 0.0 20 59
- 0.42188 3 2 ack 40 ------- 1 3.0 0.0 20 59
r 0.42256 0 2 tcp 1040 ------- 1 0.0 3.0 37 57
+ 0.42256 2 3 tcp 1040 ------- 1 0.0 3.0 37 57
r 0.42504 2 0 ack 40 ------- 1 3.0 0.0 19 56
+ 0.42504 0 2 tcp 1040 ------- 1 0.0 3.0 39 60
- 0.42504 0 2 tcp 1040 ------- 1 0.0 3.0 39 60
r 0.42672 0 2 tcp 1040 ------- 1 0.0 3.0 38 58
+ 0.42672 2 3 tcp 1040 ------- 1 0.0 3.0 38 58
d 0.42672 2 3 tcp 1040 ------- 1 0.0 3.0 38 58
- 0.42952 2 3 tcp 1040 ------- 1 0.0 3.0 22 34
r 0.43152 3 2 ack 40 ------- 1 3.0 0.0 20 59
+ 0.43152 2 0 ack 40 ------- 1 3.0 0.0 20 59
- 0.43152 2 0 ack 40 ------- 1 3.0 0.0 20 59
r 0.43852 2 3 tcp 1040 ------- 1 0.0 3.0 21 33
+ 0.43852 3 2 ack 40 ------- 1 3.0 0.0 21 61
- 0.43852 3 2 ack 40 ------- 1 3.0 0.0 21 61
r 0.4392 0 2 tcp 1040 ------- 1 0.0 3.0 39 60
+ 0.4392 2 3 tcp 1040 ------- 1 0.0 3.0 39 60
r 0.44168 2 0 ack 40 ------- 1 3.0 0.0 20 59
+ 0.44168 0 2 tcp 1040 ------- 1 0.0 3.0 40 62
- 0.44168 0 2 tcp 1040 ------- 1 0.0 3.0 40 62
- 0.44616 2 3 tcp 1040 ------- 1 0.0 3.0 23 36
r 0.44816 3 2 ack 40 ------- 1 3.0 0.0 21 61
+ 0.44816 2 0 ack 40 ------- 1 3.0 0.0 21 61
- 0.44816 2 0 ack 40 ------- 1 3.0 0.0 21 61
r 0.45516 2 3 tcp 1040 ------- 1 0.0 3.0 22 34
+ 0.45516 3 2 ack 40 ------- 1 3.0 0.0 22 63
- 0.45516 3 2 ack 40 ------- 1 3.0 0.0 22 63
r 0.45584 0 2 tcp 1040 ------- 1 0.0 3.0 40 62
+ 0.45584 2 3 tcp 1040 ------- 1 0.0 3.0 40 62
r 0.45832 2 0 ack 40 ------- 1 3.0 0.0 21 61
+ 0.45832 0 2 tcp 1040 ------- 1 0.0 3.0 41 64
- 0.45832 0 2 tcp 1040 ------- 1 0.0 3.0 41 64
- 0.4628 2 3 tcp 1040 ------- 1 0.0 3.0 25 39
r 0.4648 3 2 ack 40 ------- 1 3.0 0.0 22 63
+ 0.4648 2 0 ack 40 ------- 1 3.0 0.0 22 63
- 0.4648 2 0 ack 40 ------- 1 3.0 0.0 22 63
r 0.4718 2 3 tcp 1040 ------- 1 0.0 3.0 23 36
+ 0.4718 3 2 ack 40 ------- 1 3.0 0.0 23 65
- 0.4718 3 2 ack 40 ------- 1 3.0 0.0 23 65
r 0.47248 0 2 tcp 1040 ------- 1 0.0 3.0 41 64
+ 0.47248 2 3 tcp 1040 ------- 1 0.0 3.0 41 64
r 0.47496 2 0 ack 40 ------- 1 3.0 0.0 22 63
+ 0.47496 0 2 tcp 1040 ------- 1 0.0 3.0 42 66
- 0.47496 0 2 tcp 1040 ------- 1 0.0 3.0 42 66
- 0.47944 2 3 tcp 1040 ------- 1 0.0 3.0 27 42
r 0.48144 3 2 ack 40 ------- 1 3.0 0.0 23 65
+ 0.48144 2 0 ack 40 ------- 1 3.0 0.0 23 65
- 0.48144 2 0 ack 40 ------- 1 3.0 0.0 23 65
r 0.48844 2 3 tcp 1040 ------- 1 0.0 3.0 25 39
+ 0.48844 3 2 ack 40 ------- 1 3.0 0.0 23 67
- 0.48844 3 2 ack 40 ------- 1 3.0 0.0 23 67
r 0.48912 0 2 tcp 1040 ------- 1 0.0 3.0 42 66
+ 0.48912 2 3 tcp 1040 ------- 1 0.0 3.0 42 66
r 0.4916 2 0 ack 40 ------- 1 3.0 0.0 23 65
+ 0.4916 0 2 tcp 1040 ------- 1 0.0 3.0 43 68
- 0.4916 0 2 tcp 1040 ------- 1 0.0 3.0 43 68
- 0.49608 2 3 tcp 1040 ------- 1 0.0 3.0 29 45
r 0.49808 3 2 ack 40 ------- 1 3.0 0.0 23 67
+ 0.49808 2 0 ack 40 ------- 1 3.0 0.0 23 67
- 0.49808 2 0 ack 40 ------- 1 3.0 0.0 23 67
+ 0.5 1 2 cbr 210 ------- 0 1.0 3.1 0 69
- 0.5 1 2 cbr 210 ------- 0 1.0 3.1 0 69
r 0.50508 2 3 tcp 1040 ------- 1 0.0 3.0 27 42
+ 0.50508 3 2 ack 40 ------- 1 3.0 0.0 23 70
- 0.50508 3 2 ack 40 ------- 1 3.0 0.0 23 70
r 0.50576 0 2 tcp 1040 ------- 1 0.0 3.0 43 68
+ 0.50576 2 3 tcp 1040 ------- 1 0.0 3.0 43 68
r 0.50824 2 0 ack 40 ------- 1 3.0 0.0 23 67
r 0.51084 1 2 cbr 210 ------- 0 1.0 3.1 0 69
+ 0.51084 2 3 cbr 210 ------- 0 1.0 3.1 0 69
d 0.51084 2 3 cbr 210 ------- 0 1.0 3.1 0 69
- 0.51272 2 3 tcp 1040 ------- 1 0.0 3.0 31 48
r 0.51472 3 2 ack 40 ------- 1 3.0 0.0 23 70
+ 0.51472 2 0 ack 40 ------- 1 3.0 0.0 23 70
- 0.51472 2 0 ack 40 ------- 1 3.0 0.0 23 70
r 0.52172 2 3 tcp 1040 ------- 1 0.0 3.0 29 45
+ 0.52172 3 2 ack 40 ------- 1 3.0 0.0 23 71
- 0.52172 3 2 ack 40 ------- 1 3.0 0.0 23 71
r 0.52488 2 0 ack 40 ------- 1 3.0 0.0 23 70
- 0.52936 2 3 tcp 1040 ------- 1 0.0 3.0 33 51
r 0.53136 3 2 ack 40 ------- 1 3.0 0.0 23 71
+ 0.53136 2 0 ack 40 ------- 1 3.0 0.0 23 71
- 0.53136 2 0 ack 40 ------- 1 3.0 0.0 23 71
r 0.53836 2 3 tcp 1040 ------- 1 0.0 3.0 31 48
+ 0.53836 3 2 ack 40 ------- 1 3.0 0.0 23 72
- 0.53836 3 2 ack 40 ------- 1 3.0 0.0 23 72
r 0.54152 2 0 ack 40 ------- 1 3.0 0.0 23 71
+ 0.54152 0 2 tcp 1040 ---A--- 1 0.0 3.0 24 73
- 0.54152 0 2 tcp 1040 ---A--- 1 0.0 3.0 24 73
- 0.546 2 3 tcp 1040 ------- 1 0.0 3.0 35 54
r 0.548 3 2 ack 40 ------- 1 3.0 0.0 23 72
+ 0.548 2 0 ack 40 ------- 1 3.0 0.0 23 72
- 0.548 2 0 ack 40 ------- 1 3.0 0.0 23 72
+ 0.55 1 2 cbr 210 ------- 0 1.0 3.1 1 74
- 0.55 1 2 cbr 210 ------- 0 1.0 3.1 1 74
r 0.555 2 3 tcp 1040 ------- 1 0.0 3.0 33 51
+ 0.555 3 2 ack 40 ------- 1 3.0 0.0 23 75
- 0.555 3 2 ack 40 ------- 1 3.0 0.0 23 75
r 0.55568 0 2 tcp 1040 ---A--- 1 0.0 3.0 24 73
+ 0.55568 2 3 tcp 1040 ---A--- 1 0.0 3.0 24 73
r 0.55816 2 0 ack 40 ------- 1 3.0 0.0 23 72
r 0.56084 1 2 cbr 210 ------- 0 1.0 3.1 1 74
+ 0.56084 2 3 cbr 210 ------- 0 1.0 3.1 1 74
- 0.56264 2 3 tcp 1040 ------- 1 0.0 3.0 37 57
r 0.56464 3 2 ack 40 ------- 1 3.0 0.0 23 75
+ 0.56464 2 0 ack 40 ------- 1 3.0 0.0 23 75
- 0.56464 2 0 ack 40 ------- 1 3.0 0.0 23 75
r 0.57164 2 3 tcp 1040 ------- 1 0.0 3.0 35 54
+ 0.57164 3 2 ack 40 ------- 1 3.0 0.0 23 76
- 0.57164 3 2 ack 40 ------- 1 3.0 0.0 23 76
r 0.5748 2 0 ack 40 ------- 1 3.0 0.0 23 75
- 0.57928 2 3 tcp 1040 ------- 1 0.0 3.0 39 60
r 0.58128 3 2 ack 40 ------- 1 3.0 0.0 23 76
+ 0.58128 2 0 ack 40 ------- 1 3.0 0.0 23 76
- 0.58128 2 0 ack 40 ------- 1 3.0 0.0 23 76
r 0.58828 2 3 tcp 1040 ------- 1 0.0 3.0 37 57
+ 0.58828 3 2 ack 40 ------- 1 3.0 0.0 23 77
- 0.58828 3 2 ack 40 ------- 1 3.0 0.0 23 77
r 0.59144 2 0 ack 40 ------- 1 3.0 0.0 23 76
- 0.59592 2 3 tcp 1040 ------- 1 0.0 3.0 40 62
r 0.59792 3 2 ack 40 ------- 1 3.0 0.0 23 77
+ 0.59792 2 0 ack 40 ------- 1 3.0 0.0 23 77
- 0.59792 2 0 ack 40 ------- 1 3.0 0.0 23 77
+ 0.6 1 2 cbr 210 ------- 0 1.0 3.1 2 78
- 0.6 1 2 cbr 210 ------- 0 1.0 3.1 2 78
r 0.60492 2 3 tcp 1040 ------- 1 0.0 3.0 39 60
+ 0.60492 3 2 ack 40 ------- 1 3.0 0.0 23 79
- 0.60492 3 2 ack 40 ------- 1 3.0 0.0 23 79
r 0.60808 2 0 ack 40 ------- 1 3.0 0.0 23 77
r 0.61084 1 2 cbr 210 ------- 0 1.0 3.1 2 78
+ 0.61084 2 3 cbr 210 ------- 0 1.0 3.1 2 78
- 0.61256 2 3 tcp 1040 ------- 1 0.0 3.0 41 64
r 0.61456 3 2 ack 40 ------- 1 3.0 0.0 23 79
+ 0.61456 2 0 ack 40 ------- 1 3.0 0.0 23 79
- 0.61456 2 0 ack 40 ------- 1 3.0 0.0 23 79
r 0.62156 2 3 tcp 1040 ------- 1 0.0 3.0 40 62
+ 0.62156 3 2 ack 40 ------- 1 3.0 0.0 23 80
- 0.62156 3 2 ack 40 ------- 1 3.0 0.0 23 80
r 0.62472 2 0 ack 40 ------- 1 3.0 0.0 23 79
- 0.6292 2 3 tcp 1040 ------- 1 0.0 3.0 42 66
r 0.6312 3 2 ack 40 ------- 1 3.0 0.0 23 80
+ 0.6312 2 0 ack 40 ------- 1 3.0 0.0 23 80
- 0.6312 2 0 ack 40 ------- 1 3.0 0.0 23 80
r 0.6382 2 3 tcp 1040 ------- 1 0.0 3.0 41 64
+ 0.6382 3 2 ack 40 ------- 1 3.0 0.0 23 81
- 0.6382 3 2 ack 40 ------- 1 3.0 0.0 23 81
r 0.64136 2 0 ack 40 ------- 1 3.0 0.0 23 80
- 0.64584 2 3 tcp 1040 ------- 1 0.0 3.0 43 68
r 0.64784 3 2 ack 40 ------- 1 3.0 0.0 23 81
+ 0.64784 2 0 ack 40 ------- 1 3.0 0.0 23 81
- 0.64784 2 0 ack 40 ------- 1 3.0 0.0 23 81
+ 0.65 1 2 cbr 210 ------- 0 1.0 3.1 3 82
- 0.65 1 2 cbr 210 ------- 0 1.0 3.1 3 82
r 0.65484 2 3 tcp 1040 ------- 1 0.0 3.0 42 66
+ 0.65484 3 2 ack 40 ------- 1 3.0 0.0 23 83
- 0.65484 3 2 ack 40 ------- 1 3.0 0.0 23 83
r 0.658 2 0 ack 40 ------- 1 3.0 0.0 23 81
r 0.66084 1 2 cbr 210 ------- 0 1.0 3.1 3 82
+ 0.66084 2 3 cbr 210 ------- 0 1.0 3.1 3 82
- 0.66248 2 3 tcp 1040 ---A--- 1 0.0 3.0 24 73
r 0.66448 3 2 ack 40 ------- 1 3.0 0.0 23 83
+ 0.66448 2 0 ack 40 ------- 1 3.0 0.0 23 83
- 0.66448 2 0 ack 40 ------- 1 3.0 0.0 23 83
r 0.67148 2 3 tcp 1040 ------- 1 0.0 3.0 43 68
+ 0.67148 3 2 ack 40 ------- 1 3.0 0.0 23 84
- 0.67148 3 2 ack 40 ------- 1 3.0 0.0 23 84
r 0.67464 2 0 ack 40 ------- 1 3.0 0.0 23 83
- 0.67912 2 3 cbr 210 ------- 0 1.0 3.1 1 74
r 0.68112 3 2 ack 40 ------- 1 3.0 0.0 23 84
+ 0.68112 2 0 ack 40 ------- 1 3.0 0.0 23 84
- 0.68112 2 0 ack 40 ------- 1 3.0 0.0 23 84
- 0.68248 2 3 cbr 210 ------- 0 1.0 3.1 2 78
- 0.68584 2 3 cbr 210 ------- 0 1.0 3.1 3 82
r 0.68812 2 3 tcp 1040 ---A--- 1 0.0 3.0 24 73
+ 0.68812 3 2 ack 40 ------- 1 3.0 0.0 25 85
- 0.68812 3 2 ack 40 ------- 1 3.0 0.0 25 85
r 0.69128 2 0 ack 40 ------- 1 3.0 0.0 23 84
r 0.69148 2 3 cbr 210 ------- 0 1.0 3.1 1 74
r 0.69484 2 3 cbr 210 ------- 0 1.0 3.1 2 78
r 0.69776 3 2 ack 40 ------- 1 3.0 0.0 25 85
+ 0.69776 2 0 ack 40 ------- 1 3.0 0.0 25 85
- 0.69776 2 0 ack 40 ------- 1 3.0 0.0 25 85
r 0.6982 2 3 cbr 210 ------- 0 1.0 3.1 3 82
+ 0.7 1 2 cbr 210 ------- 0 1.0 3.1 4 86
- 0.7 1 2 cbr 210 ------- 0 1.0 3.1 4 86
r 0.70792 2 0 ack 40 ------- 1 3.0 0.0 25 85
+ 0.70792 0 2 tcp 1040 ------- 1 0.0 3.0 26 87
- 0.70792 0 2 tcp 1040 ------- 1 0.0 3.0 26 87
+ 0.70792 0 2 tcp 1040 ------- 1 0.0 3.0 27 88
r 0.71084 1 2 cbr 210 ------- 0 1.0 3.1 4 86
+ 0.71084 2 3 cbr 210 ------- 0 1.0 3.1 4 86
- 0.71084 2 3 cbr 210 ------- 0 1.0 3.1 4 86
- 0.71208 0 2 tcp 1040 ------- 1 0.0 3.0 27 88
r 0.72208 0 2 tcp 1040 ------- 1 0.0 3.0 26 87
+ 0.72208 2 3 tcp 1040 ------- 1 0.0 3.0 26 87
- 0.72208 2 3 tcp 1040 ------- 1 0.0 3.0 26 87
r 0.7232 2 3 cbr 210 ------- 0 1.0 3.1 4 86
r 0.72624 0 2 tcp 1040 ------- 1 0.0 3.0 27 88
+ 0.72624 2 3 tcp 1040 ------- 1 0.0 3.0 27 88
- 0.73872 2 3 tcp 1040 ------- 1 0.0 3.0 27 88
r 0.74772 2 3 tcp 1040 ------- 1 0.0 3.0 26 87
+ 0.74772 3 2 ack 40 ------- 1 3.0 0.0 27 89
- 0.74772 3 2 ack 40 ------- 1 3.0 0.0 27 89
+ 0.75 1 2 cbr 210 ------- 0 1.0 3.1 5 90
- 0.75 1 2 cbr 210 ------- 0 1.0 3.1 5 90
r 0.75736 3 2 ack 40 ------- 1 3.0 0.0 27 89
+ 0.75736 2 0 ack 40 ------- 1 3.0 0.0 27 89
- 0.75736 2 0 ack 40 ------- 1 3.0 0.0 27 89
r 0.76084 1 2 cbr 210 ------- 0 1.0 3.1 5 90
+ 0.76084 2 3 cbr 210 ------- 0 1.0 3.1 5 90
- 0.76084 2 3 cbr 210 ------- 0 1.0 3.1 5 90
r 0.76436 2 3 tcp 1040 ------- 1 0.0 3.0 27 88
+ 0.76436 3 2 ack 40 ------- 1 3.0 0.0 27 91
- 0.76436 3 2 ack 40 ------- 1 3.0 0.0 27 91
r 0.76752 2 0 ack 40 ------- 1 3.0 0.0 27 89
+ 0.76752 0 2 tcp 1040 ------- 1 0.0 3.0 28 92
- 0.76752 0 2 tcp 1040 ------- 1 0.0 3.0 28 92
+ 0.76752 0 2 tcp 1040 ------- 1 0.0 3.0 29 93
+ 0.76752 0 2 tcp 1040 ------- 1 0.0 3.0 30 94
- 0.77168 0 2 tcp 1040 ------- 1 0.0 3.0 29 93
r 0.7732 2 3 cbr 210 ------- 0 1.0 3.1 5 90
r 0.774 3 2 ack 40 ------- 1 3.0 0.0 27 91
+ 0.774 2 0 ack 40 ------- 1 3.0 0.0 27 91
- 0.774 2 0 ack 40 ------- 1 3.0 0.0 27 91
- 0.77584 0 2 tcp 1040 ------- 1 0.0 3.0 30 94
r 0.78168 0 2 tcp 1040 ------- 1 0.0 3.0 28 92
+ 0.78168 2 3 tcp 1040 ------- 1 0.0 3.0 28 92
- 0.78168 2 3 tcp 1040 ------- 1 0.0 3.0 28 92
r 0.78416 2 0 ack 40 ------- 1 3.0 0.0 27 91
+ 0.78416 0 2 tcp 1040 ------- 1 0.0 3.0 31 95
- 0.78416 0 2 tcp 1040 ------- 1 0.0 3.0 31 95
r 0.78584 0 2 tcp 1040 ------- 1 0.0 3.0 29 93
+ 0.78584 2 3 tcp 1040 ------- 1 0.0 3.0 29 93
r 0.79 0 2 tcp 1040 ------- 1 0.0 3.0 30 94
+ 0.79 2 3 tcp 1040 ------- 1 0.0 3.0 30 94
- 0.79832 2 3 tcp 1040 ------- 1 0.0 3.0 29 93
r 0.79832 0 2 tcp 1040 ------- 1 0.0 3.0 31 95
+ 0.79832 2 3 tcp 1040 ------- 1 0.0 3.0 31 95
+ 0.8 1 2 cbr 210 ------- 0 1.0 3.1 6 96
- 0.8 1 2 cbr 210 ------- 0 1.0 3.1 6 96
r 0.80732 2 3 tcp 1040 ------- 1 0.0 3.0 28 92
+ 0.80732 3 2 ack 40 ------- 1 3.0 0.0 29 97
- 0.80732 3 2 ack 40 ------- 1 3.0 0.0 29 97
r 0.81084 1 2 cbr 210 ------- 0 1.0 3.1 6 96
+ 0.81084 2 3 cbr 210 ------- 0 1.0 3.1 6 96
- 0.81496 2 3 tcp 1040 ------- 1 0.0 3.0 30 94
r 0.81696 3 2 ack 40 ------- 1 3.0 0.0 29 97
+ 0.81696 2 0 ack 40 ------- 1 3.0 0.0 29 97
- 0.81696 2 0 ack 40 ------- 1 3.0 0.0 29 97
r 0.82396 2 3 tcp 1040 ------- 1 0.0 3.0 29 93
+ 0.82396 3 2 ack 40 ------- 1 3.0 0.0 29 98
- 0.82396 3 2 ack 40 ------- 1 3.0 0.0 29 98
r 0.82712 2 0 ack 40 ------- 1 3.0 0.0 29 97
+ 0.82712 0 2 tcp 1040 ------- 1 0.0 3.0 32 99
- 0.82712 0 2 tcp 1040 ------- 1 0.0 3.0 32 99
+ 0.82712 0 2 tcp 1040 ------- 1 0.0 3.0 33 100
- 0.83128 0 2 tcp 1040 ------- 1 0.0 3.0 33 100
- 0.8316 2 3 tcp 1040 ------- 1 0.0 3.0 31 95
r 0.8336 3 2 ack 40 ------- 1 3.0 0.0 29 98
+ 0.8336 2 0 ack 40 ------- 1 3.0 0.0 29 98
- 0.8336 2 0 ack 40 ------- 1 3.0 0.0 29 98
r 0.8406 2 3 tcp 1040 ------- 1 0.0 3.0 30 94
+ 0.8406 3 2 ack 40 ------- 1 3.0 0.0 31 101
- 0.8406 3 2 ack 40 ------- 1 3.0 0.0 31 101
r 0.84128 0 2 tcp 1040 ------- 1 0.0 3.0 32 99
+ 0.84128 2 3 tcp 1040 ------- 1 0.0 3.0 32 99
r 0.84376 2 0 ack 40 ------- 1 3.0 0.0 29 98
+ 0.84376 0 2 tcp 1040 ------- 1 0.0 3.0 34 102
- 0.84376 0 2 tcp 1040 ------- 1 0.0 3.0 34 102
r 0.84544 0 2 tcp 1040 ------- 1 0.0 3.0 33 100
+ 0.84544 2 3 tcp 1040 ------- 1 0.0 3.0 33 100
- 0.84824 2 3 cbr 210 ------- 0 1.0 3.1 6 96
+ 0.85 1 2 cbr 210 ------- 0 1.0 3.1 7 103
- 0.85 1 2 cbr 210 ------- 0 1.0 3.1 7 103
r 0.85024 3 2 ack 40 ------- 1 3.0 0.0 31 101
+ 0.85024 2 0 ack 40 ------- 1 3.0 0.0 31 101
- 0.85024 2 0 ack 40 ------- 1 3.0 0.0 31 101
- 0.8516 2 3 tcp 1040 ------- 1 0.0 3.0 32 99
r 0.85724 2 3 tcp 1040 ------- 1 0.0 3.0 31 95
+ 0.85724 3 2 ack 40 ------- 1 3.0 0.0 31 104
- 0.85724 3 2 ack 40 ------- 1 3.0 0.0 31 104
r 0.85792 0 2 tcp 1040 ------- 1 0.0 3.0 34 102
+ 0.85792 2 3 tcp 1040 ------- 1 0.0 3.0 34 102
r 0.8604 2 0 ack 40 ------- 1 3.0 0.0 31 101
+ 0.8604 0 2 tcp 1040 ------- 1 0.0 3.0 35 105
- 0.8604 0 2 tcp 1040 ------- 1 0.0 3.0 35 105
+ 0.8604 0 2 tcp 1040 ------- 1 0.0 3.0 36 106
r 0.8606 2 3 cbr 210 ------- 0 1.0 3.1 6 96
r 0.86084 1 2 cbr 210 ------- 0 1.0 3.1 7 103
+ 0.86084 2 3 cbr 210 ------- 0 1.0 3.1 7 103
- 0.86456 0 2 tcp 1040 ------- 1 0.0 3.0 36 106
r 0.86688 3 2 ack 40 ------- 1 3.0 0.0 31 104
+ 0.86688 2 0 ack 40 ------- 1 3.0 0.0 31 104
- 0.86688 2 0 ack 40 ------- 1 3.0 0.0 31 104
- 0.86824 2 3 tcp 1040 ------- 1 0.0 3.0 33 100
r 0.87456 0 2 tcp 1040 ------- 1 0.0 3.0 35 105
+ 0.87456 2 3 tcp 1040 ------- 1 0.0 3.0 35 105
r 0.87704 2 0 ack 40 ------- 1 3.0 0.0 31 104
+ 0.87704 0 2 tcp 1040 ------- 1 0.0 3.0 37 107
- 0.87704 0 2 tcp 1040 ------- 1 0.0 3.0 37 107
r 0.87724 2 3 tcp 1040 ------- 1 0.0 3.0 32 99
+ 0.87724 3 2 ack 40 ------- 1 3.0 0.0 33 108
- 0.87724 3 2 ack 40 ------- 1 3.0 0.0 33 108
r 0.87872 0 2 tcp 1040 ------- 1 0.0 3.0 36 106
+ 0.87872 2 3 tcp 1040 ------- 1 0.0 3.0 36 106
- 0.88488 2 3 tcp 1040 ------- 1 0.0 3.0 34 102
r 0.88688 3 2 ack 40 ------- 1 3.0 0.0 33 108
+ 0.88688 2 0 ack 40 ------- 1 3.0 0.0 33 108
- 0.88688 2 0 ack 40 ------- 1 3.0 0.0 33 108
r 0.8912 0 2 tcp 1040 ------- 1 0.0 3.0 37 107
+ 0.8912 2 3 tcp 1040 ------- 1 0.0 3.0 37 107
r 0.89388 2 3 tcp 1040 ------- 1 0.0 3.0 33 100
+ 0.89388 3 2 ack 40 ------- 1 3.0 0.0 33 109
- 0.89388 3 2 ack 40 ------- 1 3.0 0.0 33 109
r 0.89704 2 0 ack 40 ------- 1 3.0 0.0 33 108
+ 0.89704 0 2 tcp 1040 ------- 1 0.0 3.0 38 110
- 0.89704 0 2 tcp 1040 ------- 1 0.0 3.0 38 110
+ 0.89704 0 2 tcp 1040 ------- 1 0.0 3.0 39 111
+ 0.9 1 2 cbr 210 ------- 0 1.0 3.1 8 112
- 0.9 1 2 cbr 210 ------- 0 1.0 3.1 8 112
- 0.9012 0 2 tcp 1040 ------- 1 0.0 3.0 39 111
- 0.90152 2 3 cbr 210 ------- 0 1.0 3.1 7 103
r 0.90352 3 2 ack 40 ------- 1 3.0 0.0 33 109
+ 0.90352 2 0 ack 40 ------- 1 3.0 0.0 33 109
- 0.90352 2 0 ack 40 ------- 1 3.0 0.0 33 109
- 0.90488 2 3 tcp 1040 ------- 1 0.0 3.0 35 105
r 0.91052 2 3 tcp 1040 ------- 1 0.0 3.0 34 102
+ 0.91052 3 2 ack 40 ------- 1 3.0 0.0 35 113
- 0.91052 3 2 ack 40 ------- 1 3.0 0.0 35 113
r 0.91084 1 2 cbr 210 ------- 0 1.0 3.1 8 112
+ 0.91084 2 3 cbr 210 ------- 0 1.0 3.1 8 112
r 0.9112 0 2 tcp 1040 ------- 1 0.0 3.0 38 110
+ 0.9112 2 3 tcp 1040 ------- 1 0.0 3.0 38 110
r 0.91368 2 0 ack 40 ------- 1 3.0 0.0 33 109
+ 0.91368 0 2 tcp 1040 ------- 1 0.0 3.0 40 114
- 0.91368 0 2 tcp 1040 ------- 1 0.0 3.0 40 114