+ 0.1 1 0 ping 64 ------- 2 1.0 4.0 -1 0
- 0.1 1 0 ping 64 ------- 2 1.0 4.0 -1 0
r 0.110512 1 0 ping 64 ------- 2 1.0 4.0 -1 0
+ 0.110512 0 4 ping 64 ------- 2 1.0 4.0 -1 0
- 0.110512 0 4 ping 64 ------- 2 1.0 4.0 -1 0
+ 0.2 4 0 ping 64 ------- 1 4.0 1.0 -1 1
- 0.2 4 0 ping 64 ------- 1 4.0 1.0 -1 1
r 0.211024 0 4 ping 64 ------- 2 1.0 4.0 -1 0
+ 0.211024 4 0 ping 64 ------- 1 4.0 1.0 -1 2
- 0.211024 4 0 ping 64 ------- 1 4.0 1.0 -1 2
+ 0.3 2 0 ping 64 ------- 0 2.0 5.0 -1 3
- 0.3 2 0 ping 64 ------- 0 2.0 5.0 -1 3
r 0.300512 4 0 ping 64 ------- 1 4.0 1.0 -1 1
+ 0.300512 0 1 ping 64 ------- 1 4.0 1.0 -1 1
- 0.300512 0 1 ping 64 ------- 1 4.0 1.0 -1 1
r 0.310512 2 0 ping 64 ------- 0 2.0 5.0 -1 3
+ 0.310512 0 5 ping 64 ------- 0 2.0 5.0 -1 3
- 0.310512 0 5 ping 64 ------- 0 2.0 5.0 -1 3
r 0.311024 0 1 ping 64 ------- 1 4.0 1.0 -1 1
+ 0.311024 1 0 ping 64 ------- 2 1.0 4.0 -1 4
- 0.311024 1 0 ping 64 ------- 2 1.0 4.0 -1 4
r 0.311536 4 0 ping 64 ------- 1 4.0 1.0 -1 2
+ 0.311536 0 1 ping 64 ------- 1 4.0 1.0 -1 2
- 0.311536 0 1 ping 64 ------- 1 4.0 1.0 -1 2
r 0.321536 1 0 ping 64 ------- 2 1.0 4.0 -1 4
+ 0.321536 0 4 ping 64 ------- 2 1.0 4.0 -1 4
- 0.321536 0 4 ping 64 ------- 2 1.0 4.0 -1 4
r 0.322048 0 1 ping 64 ------- 1 4.0 1.0 -1 2
+ 0.4 5 0 ping 64 ------- 2 5.0 2.0 -1 5
- 0.4 5 0 ping 64 ------- 2 5.0 2.0 -1 5
r 0.411024 0 5 ping 64 ------- 0 2.0 5.0 -1 3
+ 0.411024 5 0 ping 64 ------- 2 5.0 2.0 -1 6
- 0.411024 5 0 ping 64 ------- 2 5.0 2.0 -1 6
r 0.422048 0 4 ping 64 ------- 2 1.0 4.0 -1 4
+ 0.5 3 0 ping 64 ------- 0 3.0 6.0 -1 7
- 0.5 3 0 ping 64 ------- 0 3.0 6.0 -1 7
r 0.500512 5 0 ping 64 ------- 2 5.0 2.0 -1 5
+ 0.500512 0 2 ping 64 ------- 2 5.0 2.0 -1 5
- 0.500512 0 2 ping 64 ------- 2 5.0 2.0 -1 5
r 0.510512 3 0 ping 64 ------- 0 3.0 6.0 -1 7
+ 0.510512 0 6 ping 64 ------- 0 3.0 6.0 -1 7
d 0.510512 0 6 ping 64 ------- 0 3.0 6.0 -1 7
r 0.511024 0 2 ping 64 ------- 2 5.0 2.0 -1 5
+ 0.511024 2 0 ping 64 ------- 0 2.0 5.0 -1 8
- 0.511024 2 0 ping 64 ------- 0 2.0 5.0 -1 8
r 0.511536 5 0 ping 64 ------- 2 5.0 2.0 -1 6
+ 0.511536 0 2 ping 64 ------- 2 5.0 2.0 -1 6
- 0.511536 0 2 ping 64 ------- 2 5.0 2.0 -1 6
r 0.521536 2 0 ping 64 ------- 0 2.0 5.0 -1 8
+ 0.521536 0 5 ping 64 ------- 0 2.0 5.0 -1 8
- 0.521536 0 5 ping 64 ------- 0 2.0 5.0 -1 8
r 0.522048 0 2 ping 64 ------- 2 5.0 2.0 -1 6
+ 0.6 6 0 ping 64 ------- 0 6.0 3.0 -1 9
- 0.6 6 0 ping 64 ------- 0 6.0 3.0 -1 9
r 0.622048 0 5 ping 64 ------- 0 2.0 5.0 -1 8
r 0.690512 6 0 ping 64 ------- 0 6.0 3.0 -1 9
+ 0.690512 0 3 ping 64 ------- 0 6.0 3.0 -1 9
- 0.690512 0 3 ping 64 ------- 0 6.0 3.0 -1 9
+ 0.7 1 0 ping 64 ------- 2 1.0 4.0 -1 10
- 0.7 1 0 ping 64 ------- 2 1.0 4.0 -1 10
r 0.701024 0 3 ping 64 ------- 0 6.0 3.0 -1 9
+ 0.701024 3 0 ping 64 ------- 0 3.0 6.0 -1 11
- 0.701024 3 0 ping 64 ------- 0 3.0 6.0 -1 11
r 0.710512 1 0 ping 64 ------- 2 1.0 4.0 -1 10
+ 0.710512 0 4 ping 64 ------- 2 1.0 4.0 -1 10
- 0.710512 0 4 ping 64 ------- 2 1.0 4.0 -1 10
r 0.711536 3 0 ping 64 ------- 0 3.0 6.0 -1 11
+ 0.711536 0 6 ping 64 ------- 0 3.0 6.0 -1 11
d 0.711536 0 6 ping 64 ------- 0 3.0 6.0 -1 11
+ 0.8 4 0 ping 64 ------- 1 4.0 1.0 -1 12
- 0.8 4 0 ping 64 ------- 1 4.0 1.0 -1 12
r 0.811024 0 4 ping 64 ------- 2 1.0 4.0 -1 10
+ 0.811024 4 0 ping 64 ------- 1 4.0 1.0 -1 13
- 0.811024 4 0 ping 64 ------- 1 4.0 1.0 -1 13
+ 0.9 2 0 ping 64 ------- 0 2.0 5.0 -1 14
- 0.9 2 0 ping 64 ------- 0 2.0 5.0 -1 14
r 0.900512 4 0 ping 64 ------- 1 4.0 1.0 -1 12
+ 0.900512 0 1 ping 64 ------- 1 4.0 1.0 -1 12
- 0.900512 0 1 ping 64 ------- 1 4.0 1.0 -1 12
r 0.910512 2 0 ping 64 ------- 0 2.0 5.0 -1 14
+ 0.910512 0 5 ping 64 ------- 0 2.0 5.0 -1 14
- 0.910512 0 5 ping 64 ------- 0 2.0 5.0 -1 14
r 0.911024 0 1 ping 64 ------- 1 4.0 1.0 -1 12
+ 0.911024 1 0 ping 64 ------- 2 1.0 4.0 -1 15
- 0.911024 1 0 ping 64 ------- 2 1.0 4.0 -1 15
r 0.911536 4 0 ping 64 ------- 1 4.0 1.0 -1 13
+ 0.911536 0 1 ping 64 ------- 1 4.0 1.0 -1 13
- 0.911536 0 1 ping 64 ------- 1 4.0 1.0 -1 13
r 0.921536 1 0 ping 64 ------- 2 1.0 4.0 -1 15
+ 0.921536 0 4 ping 64 ------- 2 1.0 4.0 -1 15
- 0.921536 0 4 ping 64 ------- 2 1.0 4.0 -1 15
r 0.922048 0 1 ping 64 ------- 1 4.0 1.0 -1 13
+ 1 5 0 ping 64 ------- 2 5.0 2.0 -1 16
- 1 5 0 ping 64 ------- 2 5.0 2.0 -1 16
r 1.011024 0 5 ping 64 ------- 0 2.0 5.0 -1 14
+ 1.011024 5 0 ping 64 ------- 2 5.0 2.0 -1 17
- 1.011024 5 0 ping 64 ------- 2 5.0 2.0 -1 17
r 1.022048 0 4 ping 64 ------- 2 1.0 4.0 -1 15
+ 1.1 3 0 ping 64 ------- 0 3.0 6.0 -1 18
- 1.1 3 0 ping 64 ------- 0 3.0 6.0 -1 18
r 1.100512 5 0 ping 64 ------- 2 5.0 2.0 -1 16
+ 1.100512 0 2 ping 64 ------- 2 5.0 2.0 -1 16
- 1.100512 0 2 ping 64 ------- 2 5.0 2.0 -1 16
r 1.110512 3 0 ping 64 ------- 0 3.0 6.0 -1 18
+ 1.110512 0 6 ping 64 ------- 0 3.0 6.0 -1 18
d 1.110512 0 6 ping 64 ------- 0 3.0 6.0 -1 18
r 1.111024 0 2 ping 64 ------- 2 5.0 2.0 -1 16
+ 1.111024 2 0 ping 64 ------- 0 2.0 5.0 -1 19
- 1.111024 2 0 ping 64 ------- 0 2.0 5.0 -1 19
r 1.111536 5 0 ping 64 ------- 2 5.0 2.0 -1 17
+ 1.111536 0 2 ping 64 ------- 2 5.0 2.0 -1 17
- 1.111536 0 2 ping 64 ------- 2 5.0 2.0 -1 17
r 1.121536 2 0 ping 64 ------- 0 2.0 5.0 -1 19
+ 1.121536 0 5 ping 64 ------- 0 2.0 5.0 -1 19
- 1.121536 0 5 ping 64 ------- 0 2.0 5.0 -1 19
r 1.122048 0 2 ping 64 ------- 2 5.0 2.0 -1 17
+ 1.2 6 0 ping 64 ------- 0 6.0 3.0 -1 20
- 1.2 6 0 ping 64 ------- 0 6.0 3.0 -1 20
r 1.222048 0 5 ping 64 ------- 0 2.0 5.0 -1 19
r 1.290512 6 0 ping 64 ------- 0 6.0 3.0 -1 20
+ 1.290512 0 3 ping 64 ------- 0 6.0 3.0 -1 20
- 1.290512 0 3 ping 64 ------- 0 6.0 3.0 -1 20
r 1.301024 0 3 ping 64 ------- 0 6.0 3.0 -1 20
+ 1.301024 3 0 ping 64 ------- 0 3.0 6.0 -1 21
- 1.301024 3 0 ping 64 ------- 0 3.0 6.0 -1 21
r 1.311536 3 0 ping 64 ------- 0 3.0 6.0 -1 21
+ 1.311536 0 6 ping 64 ------- 0 3.0 6.0 -1 21
d 1.311536 0 6 ping 64 ------- 0 3.0 6.0 -1 21
