V -t * -v 1.0a5 -a 0
A -t * -n 1 -p 0 -o 0x7fffffff -c 30 -a 1
A -t * -h 1 -m 1073741823 -s 0
c -t * -i 1 -n red
c -t * -i 2 -n blue
n -t * -a 4 -s 4 -S UP -v circle -c black -i black
n -t * -a 0 -s 0 -S UP -v circle -c black -i black
n -t * -a 5 -s 5 -S UP -v circle -c black -i black
n -t * -a 1 -s 1 -S UP -v circle -c black -i black
n -t * -a 2 -s 2 -S UP -v circle -c black -i black
n -t * -a 3 -s 3 -S UP -v circle -c black -i black
l -t * -s 0 -d 2 -S UP -r 2000000 -D 0.01 -c black -o right-down
l -t * -s 1 -d 2 -S UP -r 2000000 -D 0.01 -c black -o right-up
l -t * -s 3 -d 2 -S UP -r 300000 -D 0.10000000000000001 -c black -o left
X -t * -n 6 -r 0.5Mb -D 40ms -o left
L -t * -s 6 -d 3 -o up
L -t * -s 6 -d 4 -o down
L -t * -s 6 -d 5 -o up
+ -t 0 -s 0 -d 2 -p tcp -e 40 -c 1 -i 0 -a 1 -x {0.0 4.0 0 ------- null}
- -t 0 -s 0 -d 2 -p tcp -e 40 -c 1 -i 0 -a 1 -x {0.0 4.0 0 ------- null}
h -t 0 -s 0 -d 2 -p tcp -e 40 -c 1 -i 0 -a 1 -x {0.0 4.0 -1 ------- null}
r -t 0.01016 -s 0 -d 2 -p tcp -e 40 -c 1 -i 0 -a 1 -x {0.0 4.0 0 ------- null}
d -t 0.01016 -s 2 -d 3 -p tcp -e 40 -c 1 -i 0 -a 1 -x {0.0 4.0 0 ------- null}
+ -t 0.5 -s 1 -d 2 -p cbr -e 210 -c 2 -i 1 -a 2 -x {1.0 5.0 0 ------- null}
- -t 0.5 -s 1 -d 2 -p cbr -e 210 -c 2 -i 1 -a 2 -x {1.0 5.0 0 ------- null}
h -t 0.5 -s 1 -d 2 -p cbr -e 210 -c 2 -i 1 -a 2 -x {1.0 5.0 -1 ------- null}
+ -t 0.5084 -s 1 -d 2 -p cbr -e 210 -c 2 -i 2 -a 2 -x {1.0 5.0 1 ------- null}
- -t 0.5084 -s 1 -d 2 -p cbr -e 210 -c 2 -i 2 -a 2 -x {1.0 5.0 1 ------- null}
h -t 0.5084 -s 1 -d 2 -p cbr -e 210 -c 2 -i 2 -a 2 -x {1.0 5.0 -1 ------- null}
r -t 0.51084 -s 1 -d 2 -p cbr -e 210 -c 2 -i 1 -a 2 -x {1.0 5.0 0 ------- null}
d -t 0.51084 -s 2 -d 3 -p cbr -e 210 -c 2 -i 1 -a 2 -x {1.0 5.0 0 ------- null}
+ -t 0.5168 -s 1 -d 2 -p cbr -e 210 -c 2 -i 3 -a 2 -x {1.0 5.0 2 ------- null}
- -t 0.5168 -s 1 -d 2 -p cbr -e 210 -c 2 -i 3 -a 2 -x {1.0 5.0 2 ------- null}
h -t 0.5168 -s 1 -d 2 -p cbr -e 210 -c 2 -i 3 -a 2 -x {1.0 5.0 -1 ------- null}
r -t 0.51924 -s 1 -d 2 -p cbr -e 210 -c 2 -i 2 -a 2 -x {1.0 5.0 1 ------- null}
+ -t 0.51924 -s 2 -d 3 -p cbr -e 210 -c 2 -i 2 -a 2 -x {1.0 5.0 1 ------- null}
- -t 0.51924 -s 2 -d 3 -p cbr -e 210 -c 2 -i 2 -a 2 -x {1.0 5.0 1 ------- null}
h -t 0.51924 -s 2 -d 3 -p cbr -e 210 -c 2 -i 2 -a 2 -x {1.0 5.0 -1 ------- null}
+ -t 0.5252 -s 1 -d 2 -p cbr -e 210 -c 2 -i 4 -a 2 -x {1.0 5.0 3 ------- null}
- -t 0.5252 -s 1 -d 2 -p cbr -e 210 -c 2 -i 4 -a 2 -x {1.0 5.0 3 ------- null}
h -t 0.5252 -s 1 -d 2 -p cbr -e 210 -c 2 -i 4 -a 2 -x {1.0 5.0 -1 ------- null}
r -t 0.52764 -s 1 -d 2 -p cbr -e 210 -c 2 -i 3 -a 2 -x {1.0 5.0 2 ------- null}
+ -t 0.52764 -s 2 -d 3 -p cbr -e 210 -c 2 -i 3 -a 2 -x {1.0 5.0 2 ------- null}
- -t 0.52764 -s 2 -d 3 -p cbr -e 210 -c 2 -i 3 -a 2 -x {1.0 5.0 2 ------- null}
h -t 0.52764 -s 2 -d 3 -p cbr -e 210 -c 2 -i 3 -a 2 -x {1.0 5.0 -1 ------- null}
+ -t 0.5336 -s 1 -d 2 -p cbr -e 210 -c 2 -i 5 -a 2 -x {1.0 5.0 4 ------- null}
- -t 0.5336 -s 1 -d 2 -p cbr -e 210 -c 2 -i 5 -a 2 -x {1.0 5.0 4 ------- null}
h -t 0.5336 -s 1 -d 2 -p cbr -e 210 -c 2 -i 5 -a 2 -x {1.0 5.0 -1 ------- null}
r -t 0.53604 -s 1 -d 2 -p cbr -e 210 -c 2 -i 4 -a 2 -x {1.0 5.0 3 ------- null}
+ -t 0.53604 -s 2 -d 3 -p cbr -e 210 -c 2 -i 4 -a 2 -x {1.0 5.0 3 ------- null}
- -t 0.53604 -s 2 -d 3 -p cbr -e 210 -c 2 -i 4 -a 2 -x {1.0 5.0 3 ------- null}
h -t 0.53604 -s 2 -d 3 -p cbr -e 210 -c 2 -i 4 -a 2 -x {1.0 5.0 -1 ------- null}
+ -t 0.542 -s 1 -d 2 -p cbr -e 210 -c 2 -i 6 -a 2 -x {1.0 5.0 5 ------- null}
- -t 0.542 -s 1 -d 2 -p cbr -e 210 -c 2 -i 6 -a 2 -x {1.0 5.0 5 ------- null}
h -t 0.542 -s 1 -d 2 -p cbr -e 210 -c 2 -i 6 -a 2 -x {1.0 5.0 -1 ------- null}
r -t 0.54444 -s 1 -d 2 -p cbr -e 210 -c 2 -i 5 -a 2 -x {1.0 5.0 4 ------- null}
+ -t 0.54444 -s 2 -d 3 -p cbr -e 210 -c 2 -i 5 -a 2 -x {1.0 5.0 4 ------- null}
- -t 0.54444 -s 2 -d 3 -p cbr -e 210 -c 2 -i 5 -a 2 -x {1.0 5.0 4 ------- null}
h -t 0.54444 -s 2 -d 3 -p cbr -e 210 -c 2 -i 5 -a 2 -x {1.0 5.0 -1 ------- null}
+ -t 0.5504 -s 1 -d 2 -p cbr -e 210 -c 2 -i 7 -a 2 -x {1.0 5.0 6 ------- null}
- -t 0.5504 -s 1 -d 2 -p cbr -e 210 -c 2 -i 7 -a 2 -x {1.0 5.0 6 ------- null}
h -t 0.5504 -s 1 -d 2 -p cbr -e 210 -c 2 -i 7 -a 2 -x {1.0 5.0 -1 ------- null}
r -t 0.55284 -s 1 -d 2 -p cbr -e 210 -c 2 -i 6 -a 2 -x {1.0 5.0 5 ------- null}
+ -t 0.55284 -s 2 -d 3 -p cbr -e 210 -c 2 -i 6 -a 2 -x {1.0 5.0 5 ------- null}
- -t 0.55284 -s 2 -d 3 -p cbr -e 210 -c 2 -i 6 -a 2 -x {1.0 5.0 5 ------- null}
h -t 0.55284 -s 2 -d 3 -p cbr -e 210 -c 2 -i 6 -a 2 -x {1.0 5.0 -1 ------- null}
+ -t 0.5588 -s 1 -d 2 -p cbr -e 210 -c 2 -i 8 -a 2 -x {1.0 5.0 7 ------- null}
- -t 0.5588 -s 1 -d 2 -p cbr -e 210 -c 2 -i 8 -a 2 -x {1.0 5.0 7 ------- null}
h -t 0.5588 -s 1 -d 2 -p cbr -e 210 -c 2 -i 8 -a 2 -x {1.0 5.0 -1 ------- null}
r -t 0.56124 -s 1 -d 2 -p cbr -e 210 -c 2 -i 7 -a 2 -x {1.0 5.0 6 ------- null}
+ -t 0.56124 -s 2 -d 3 -p cbr -e 210 -c 2 -i 7 -a 2 -x {1.0 5.0 6 ------- null}
- -t 0.56124 -s 2 -d 3 -p cbr -e 210 -c 2 -i 7 -a 2 -x {1.0 5.0 6 ------- null}
h -t 0.56124 -s 2 -d 3 -p cbr -e 210 -c 2 -i 7 -a 2 -x {1.0 5.0 -1 ------- null}
+ -t 0.5672 -s 1 -d 2 -p cbr -e 210 -c 2 -i 9 -a 2 -x {1.0 5.0 8 ------- null}
- -t 0.5672 -s 1 -d 2 -p cbr -e 210 -c 2 -i 9 -a 2 -x {1.0 5.0 8 ------- null}
h -t 0.5672 -s 1 -d 2 -p cbr -e 210 -c 2 -i 9 -a 2 -x {1.0 5.0 -1 ------- null}
r -t 0.56964 -s 1 -d 2 -p cbr -e 210 -c 2 -i 8 -a 2 -x {1.0 5.0 7 ------- null}
+ -t 0.56964 -s 2 -d 3 -p cbr -e 210 -c 2 -i 8 -a 2 -x {1.0 5.0 7 ------- null}
- -t 0.56964 -s 2 -d 3 -p cbr -e 210 -c 2 -i 8 -a 2 -x {1.0 5.0 7 ------- null}
h -t 0.56964 -s 2 -d 3 -p cbr -e 210 -c 2 -i 8 -a 2 -x {1.0 5.0 -1 ------- null}
+ -t 0.5756 -s 1 -d 2 -p cbr -e 210 -c 2 -i 10 -a 2 -x {1.0 5.0 9 ------- null}
- -t 0.5756 -s 1 -d 2 -p cbr -e 210 -c 2 -i 10 -a 2 -x {1.0 5.0 9 ------- null}
h -t 0.5756 -s 1 -d 2 -p cbr -e 210 -c 2 -i 10 -a 2 -x {1.0 5.0 -1 ------- null}
r -t 0.57804 -s 1 -d 2 -p cbr -e 210 -c 2 -i 9 -a 2 -x {1.0 5.0 8 ------- null}
+ -t 0.57804 -s 2 -d 3 -p cbr -e 210 -c 2 -i 9 -a 2 -x {1.0 5.0 8 ------- null}
- -t 0.57804 -s 2 -d 3 -p cbr -e 210 -c 2 -i 9 -a 2 -x {1.0 5.0 8 ------- null}
h -t 0.57804 -s 2 -d 3 -p cbr -e 210 -c 2 -i 9 -a 2 -x {1.0 5.0 -1 ------- null}
+ -t 0.584 -s 1 -d 2 -p cbr -e 210 -c 2 -i 11 -a 2 -x {1.0 5.0 10 ------- null}
- -t 0.584 -s 1 -d 2 -p cbr -e 210 -c 2 -i 11 -a 2 -x {1.0 5.0 10 ------- null}
h -t 0.584 -s 1 -d 2 -p cbr -e 210 -c 2 -i 11 -a 2 -x {1.0 5.0 -1 ------- null}
r -t 0.58644 -s 1 -d 2 -p cbr -e 210 -c 2 -i 10 -a 2 -x {1.0 5.0 9 ------- null}
+ -t 0.58644 -s 2 -d 3 -p cbr -e 210 -c 2 -i 10 -a 2 -x {1.0 5.0 9 ------- null}
- -t 0.58644 -s 2 -d 3 -p cbr -e 210 -c 2 -i 10 -a 2 -x {1.0 5.0 9 ------- null}
h -t 0.58644 -s 2 -d 3 -p cbr -e 210 -c 2 -i 10 -a 2 -x {1.0 5.0 -1 ------- null}
+ -t 0.5924 -s 1 -d 2 -p cbr -e 210 -c 2 -i 12 -a 2 -x {1.0 5.0 11 ------- null}
- -t 0.5924 -s 1 -d 2 -p cbr -e 210 -c 2 -i 12 -a 2 -x {1.0 5.0 11 ------- null}
h -t 0.5924 -s 1 -d 2 -p cbr -e 210 -c 2 -i 12 -a 2 -x {1.0 5.0 -1 ------- null}
r -t 0.59484 -s 1 -d 2 -p cbr -e 210 -c 2 -i 11 -a 2 -x {1.0 5.0 10 ------- null}
d -t 0.59484 -s 2 -d 3 -p cbr -e 210 -c 2 -i 11 -a 2 -x {1.0 5.0 10 ------- null}
+ -t 0.6008 -s 1 -d 2 -p cbr -e 210 -c 2 -i 13 -a 2 -x {1.0 5.0 12 ------- null}
- -t 0.6008 -s 1 -d 2 -p cbr -e 210 -c 2 -i 13 -a 2 -x {1.0 5.0 12 ------- null}
h -t 0.6008 -s 1 -d 2 -p cbr -e 210 -c 2 -i 13 -a 2 -x {1.0 5.0 -1 ------- null}
r -t 0.60324 -s 1 -d 2 -p cbr -e 210 -c 2 -i 12 -a 2 -x {1.0 5.0 11 ------- null}
+ -t 0.60324 -s 2 -d 3 -p cbr -e 210 -c 2 -i 12 -a 2 -x {1.0 5.0 11 ------- null}
- -t 0.60324 -s 2 -d 3 -p cbr -e 210 -c 2 -i 12 -a 2 -x {1.0 5.0 11 ------- null}
h -t 0.60324 -s 2 -d 3 -p cbr -e 210 -c 2 -i 12 -a 2 -x {1.0 5.0 -1 ------- null}
+ -t 0.6092 -s 1 -d 2 -p cbr -e 210 -c 2 -i 14 -a 2 -x {1.0 5.0 13 ------- null}
- -t 0.6092 -s 1 -d 2 -p cbr -e 210 -c 2 -i 14 -a 2 -x {1.0 5.0 13 ------- null}
h -t 0.6092 -s 1 -d 2 -p cbr -e 210 -c 2 -i 14 -a 2 -x {1.0 5.0 -1 ------- null}
r -t 0.61164 -s 1 -d 2 -p cbr -e 210 -c 2 -i 13 -a 2 -x {1.0 5.0 12 ------- null}
+ -t 0.61164 -s 2 -d 3 -p cbr -e 210 -c 2 -i 13 -a 2 -x {1.0 5.0 12 ------- null}
- -t 0.61164 -s 2 -d 3 -p cbr -e 210 -c 2 -i 13 -a 2 -x {1.0 5.0 12 ------- null}
h -t 0.61164 -s 2 -d 3 -p cbr -e 210 -c 2 -i 13 -a 2 -x {1.0 5.0 -1 ------- null}
+ -t 0.617599999999999 -s 1 -d 2 -p cbr -e 210 -c 2 -i 15 -a 2 -x {1.0 5.0 14 ------- null}
- -t 0.617599999999999 -s 1 -d 2 -p cbr -e 210 -c 2 -i 15 -a 2 -x {1.0 5.0 14 ------- null}
h -t 0.617599999999999 -s 1 -d 2 -p cbr -e 210 -c 2 -i 15 -a 2 -x {1.0 5.0 -1 ------- null}
r -t 0.620039999999999 -s 1 -d 2 -p cbr -e 210 -c 2 -i 14 -a 2 -x {1.0 5.0 13 ------- null}
+ -t 0.620039999999999 -s 2 -d 3 -p cbr -e 210 -c 2 -i 14 -a 2 -x {1.0 5.0 13 ------- null}
- -t 0.620039999999999 -s 2 -d 3 -p cbr -e 210 -c 2 -i 14 -a 2 -x {1.0 5.0 13 ------- null}
h -t 0.620039999999999 -s 2 -d 3 -p cbr -e 210 -c 2 -i 14 -a 2 -x {1.0 5.0 -1 ------- null}
r -t 0.62484 -s 2 -d 3 -p cbr -e 210 -c 2 -i 2 -a 2 -x {1.0 5.0 1 ------- null}
h -t 0.62484 -s 3 -d 6 -p cbr -e 210 -c 2 -i 2 -a 2 -x {1.0 5.0 1 ------- null}
+ -t 0.625999999999999 -s 1 -d 2 -p cbr -e 210 -c 2 -i 16 -a 2 -x {1.0 5.0 15 ------- null}
- -t 0.625999999999999 -s 1 -d 2 -p cbr -e 210 -c 2 -i 16 -a 2 -x {1.0 5.0 15 ------- null}
h -t 0.625999999999999 -s 1 -d 2 -p cbr -e 210 -c 2 -i 16 -a 2 -x {1.0 5.0 -1 ------- null}
r -t 0.628439999999999 -s 1 -d 2 -p cbr -e 210 -c 2 -i 15 -a 2 -x {1.0 5.0 14 ------- null}
+ -t 0.628439999999999 -s 2 -d 3 -p cbr -e 210 -c 2 -i 15 -a 2 -x {1.0 5.0 14 ------- null}
- -t 0.628439999999999 -s 2 -d 3 -p cbr -e 210 -c 2 -i 15 -a 2 -x {1.0 5.0 14 ------- null}
h -t 0.628439999999999 -s 2 -d 3 -p cbr -e 210 -c 2 -i 15 -a 2 -x {1.0 5.0 -1 ------- null}
r -t 0.63324 -s 2 -d 3 -p cbr -e 210 -c 2 -i 3 -a 2 -x {1.0 5.0 2 ------- null}
h -t 0.63324 -s 3 -d 6 -p cbr -e 210 -c 2 -i 3 -a 2 -x {1.0 5.0 2 ------- null}
+ -t 0.634399999999999 -s 1 -d 2 -p cbr -e 210 -c 2 -i 17 -a 2 -x {1.0 5.0 16 ------- null}
- -t 0.634399999999999 -s 1 -d 2 -p cbr -e 210 -c 2 -i 17 -a 2 -x {1.0 5.0 16 ------- null}
h -t 0.634399999999999 -s 1 -d 2 -p cbr -e 210 -c 2 -i 17 -a 2 -x {1.0 5.0 -1 ------- null}
r -t 0.636839999999999 -s 1 -d 2 -p cbr -e 210 -c 2 -i 16 -a 2 -x {1.0 5.0 15 ------- null}
+ -t 0.636839999999999 -s 2 -d 3 -p cbr -e 210 -c 2 -i 16 -a 2 -x {1.0 5.0 15 ------- null}
- -t 0.636839999999999 -s 2 -d 3 -p cbr -e 210 -c 2 -i 16 -a 2 -x {1.0 5.0 15 ------- null}
h -t 0.636839999999999 -s 2 -d 3 -p cbr -e 210 -c 2 -i 16 -a 2 -x {1.0 5.0 -1 ------- null}
r -t 0.64164 -s 2 -d 3 -p cbr -e 210 -c 2 -i 4 -a 2 -x {1.0 5.0 3 ------- null}
h -t 0.64164 -s 3 -d 6 -p cbr -e 210 -c 2 -i 4 -a 2 -x {1.0 5.0 3 ------- null}
+ -t 0.642799999999999 -s 1 -d 2 -p cbr -e 210 -c 2 -i 18 -a 2 -x {1.0 5.0 17 ------- null}
- -t 0.642799999999999 -s 1 -d 2 -p cbr -e 210 -c 2 -i 18 -a 2 -x {1.0 5.0 17 ------- null}
h -t 0.642799999999999 -s 1 -d 2 -p cbr -e 210 -c 2 -i 18 -a 2 -x {1.0 5.0 -1 ------- null}
r -t 0.645239999999999 -s 1 -d 2 -p cbr -e 210 -c 2 -i 17 -a 2 -x {1.0 5.0 16 ------- null}
d -t 0.645239999999999 -s 2 -d 3 -p cbr -e 210 -c 2 -i 17 -a 2 -x {1.0 5.0 16 ------- null}
r -t 0.65004 -s 2 -d 3 -p cbr -e 210 -c 2 -i 5 -a 2 -x {1.0 5.0 4 ------- null}
h -t 0.65004 -s 3 -d 6 -p cbr -e 210 -c 2 -i 5 -a 2 -x {1.0 5.0 4 ------- null}
+ -t 0.651199999999999 -s 1 -d 2 -p cbr -e 210 -c 2 -i 19 -a 2 -x {1.0 5.0 18 ------- null}
- -t 0.651199999999999 -s 1 -d 2 -p cbr -e 210 -c 2 -i 19 -a 2 -x {1.0 5.0 18 ------- null}
h -t 0.651199999999999 -s 1 -d 2 -p cbr -e 210 -c 2 -i 19 -a 2 -x {1.0 5.0 -1 ------- null}
r -t 0.653639999999999 -s 1 -d 2 -p cbr -e 210 -c 2 -i 18 -a 2 -x {1.0 5.0 17 ------- null}
+ -t 0.653639999999999 -s 2 -d 3 -p cbr -e 210 -c 2 -i 18 -a 2 -x {1.0 5.0 17 ------- null}
- -t 0.653639999999999 -s 2 -d 3 -p cbr -e 210 -c 2 -i 18 -a 2 -x {1.0 5.0 17 ------- null}
h -t 0.653639999999999 -s 2 -d 3 -p cbr -e 210 -c 2 -i 18 -a 2 -x {1.0 5.0 -1 ------- null}
r -t 0.65844 -s 2 -d 3 -p cbr -e 210 -c 2 -i 6 -a 2 -x {1.0 5.0 5 ------- null}
h -t 0.65844 -s 3 -d 6 -p cbr -e 210 -c 2 -i 6 -a 2 -x {1.0 5.0 5 ------- null}
+ -t 0.659599999999999 -s 1 -d 2 -p cbr -e 210 -c 2 -i 20 -a 2 -x {1.0 5.0 19 ------- null}
- -t 0.659599999999999 -s 1 -d 2 -p cbr -e 210 -c 2 -i 20 -a 2 -x {1.0 5.0 19 ------- null}
h -t 0.659599999999999 -s 1 -d 2 -p cbr -e 210 -c 2 -i 20 -a 2 -x {1.0 5.0 -1 ------- null}
r -t 0.662039999999999 -s 1 -d 2 -p cbr -e 210 -c 2 -i 19 -a 2 -x {1.0 5.0 18 ------- null}
+ -t 0.662039999999999 -s 2 -d 3 -p cbr -e 210 -c 2 -i 19 -a 2 -x {1.0 5.0 18 ------- null}
- -t 0.662039999999999 -s 2 -d 3 -p cbr -e 210 -c 2 -i 19 -a 2 -x {1.0 5.0 18 ------- null}
h -t 0.662039999999999 -s 2 -d 3 -p cbr -e 210 -c 2 -i 19 -a 2 -x {1.0 5.0 -1 ------- null}
+ -t 0.66484 -s 3 -d 6 -p cbr -e 210 -c 2 -i 2 -a 2 -x {1.0 5.0 1 ------- null}
- -t 0.66484 -s 3 -d 6 -p cbr -e 210 -c 2 -i 2 -a 2 -x {1.0 5.0 1 ------- null}
h -t 0.66484 -s 3 -d 6 -p cbr -e 210 -c 2 -i 2 -a 2 -x {1.0 5.0 -1 ------- null}
d -t 0.664844 -s 4 -d 6 -p cbr -e 210 -c 2 -i 2 -a 2 -x {1.0 5.0 1 ------- null}
r -t 0.66684 -s 2 -d 3 -p cbr -e 210 -c 2 -i 7 -a 2 -x {1.0 5.0 6 ------- null}
h -t 0.66684 -s 3 -d 6 -p cbr -e 210 -c 2 -i 7 -a 2 -x {1.0 5.0 6 ------- null}
+ -t 0.667999999999999 -s 1 -d 2 -p cbr -e 210 -c 2 -i 21 -a 2 -x {1.0 5.0 20 ------- null}
- -t 0.667999999999999 -s 1 -d 2 -p cbr -e 210 -c 2 -i 21 -a 2 -x {1.0 5.0 20 ------- null}
h -t 0.667999999999999 -s 1 -d 2 -p cbr -e 210 -c 2 -i 21 -a 2 -x {1.0 5.0 -1 ------- null}
r -t 0.670439999999999 -s 1 -d 2 -p cbr -e 210 -c 2 -i 20 -a 2 -x {1.0 5.0 19 ------- null}
+ -t 0.670439999999999 -s 2 -d 3 -p cbr -e 210 -c 2 -i 20 -a 2 -x {1.0 5.0 19 ------- null}
- -t 0.670439999999999 -s 2 -d 3 -p cbr -e 210 -c 2 -i 20 -a 2 -x {1.0 5.0 19 ------- null}
h -t 0.670439999999999 -s 2 -d 3 -p cbr -e 210 -c 2 -i 20 -a 2 -x {1.0 5.0 -1 ------- null}
+ -t 0.67324 -s 3 -d 6 -p cbr -e 210 -c 2 -i 3 -a 2 -x {1.0 5.0 2 ------- null}
- -t 0.67324 -s 3 -d 6 -p cbr -e 210 -c 2 -i 3 -a 2 -x {1.0 5.0 2 ------- null}
h -t 0.67324 -s 3 -d 6 -p cbr -e 210 -c 2 -i 3 -a 2 -x {1.0 5.0 -1 ------- null}
d -t 0.673244 -s 4 -d 6 -p cbr -e 210 -c 2 -i 3 -a 2 -x {1.0 5.0 2 ------- null}
r -t 0.67524 -s 2 -d 3 -p cbr -e 210 -c 2 -i 8 -a 2 -x {1.0 5.0 7 ------- null}
h -t 0.67524 -s 3 -d 6 -p cbr -e 210 -c 2 -i 8 -a 2 -x {1.0 5.0 7 ------- null}
+ -t 0.676399999999999 -s 1 -d 2 -p cbr -e 210 -c 2 -i 22 -a 2 -x {1.0 5.0 21 ------- null}
- -t 0.676399999999999 -s 1 -d 2 -p cbr -e 210 -c 2 -i 22 -a 2 -x {1.0 5.0 21 ------- null}
h -t 0.676399999999999 -s 1 -d 2 -p cbr -e 210 -c 2 -i 22 -a 2 -x {1.0 5.0 -1 ------- null}
r -t 0.678839999999999 -s 1 -d 2 -p cbr -e 210 -c 2 -i 21 -a 2 -x {1.0 5.0 20 ------- null}
+ -t 0.678839999999999 -s 2 -d 3 -p cbr -e 210 -c 2 -i 21 -a 2 -x {1.0 5.0 20 ------- null}
- -t 0.678839999999999 -s 2 -d 3 -p cbr -e 210 -c 2 -i 21 -a 2 -x {1.0 5.0 20 ------- null}
h -t 0.678839999999999 -s 2 -d 3 -p cbr -e 210 -c 2 -i 21 -a 2 -x {1.0 5.0 -1 ------- null}
+ -t 0.68164 -s 3 -d 6 -p cbr -e 210 -c 2 -i 4 -a 2 -x {1.0 5.0 3 ------- null}
- -t 0.68164 -s 3 -d 6 -p cbr -e 210 -c 2 -i 4 -a 2 -x {1.0 5.0 3 ------- null}
h -t 0.68164 -s 3 -d 6 -p cbr -e 210 -c 2 -i 4 -a 2 -x {1.0 5.0 -1 ------- null}
d -t 0.681644 -s 4 -d 6 -p cbr -e 210 -c 2 -i 4 -a 2 -x {1.0 5.0 3 ------- null}
r -t 0.68364 -s 2 -d 3 -p cbr -e 210 -c 2 -i 9 -a 2 -x {1.0 5.0 8 ------- null}
h -t 0.68364 -s 3 -d 6 -p cbr -e 210 -c 2 -i 9 -a 2 -x {1.0 5.0 8 ------- null}
+ -t 0.684799999999999 -s 1 -d 2 -p cbr -e 210 -c 2 -i 23 -a 2 -x {1.0 5.0 22 ------- null}
- -t 0.684799999999999 -s 1 -d 2 -p cbr -e 210 -c 2 -i 23 -a 2 -x {1.0 5.0 22 ------- null}
h -t 0.684799999999999 -s 1 -d 2 -p cbr -e 210 -c 2 -i 23 -a 2 -x {1.0 5.0 -1 ------- null}
r -t 0.687239999999999 -s 1 -d 2 -p cbr -e 210 -c 2 -i 22 -a 2 -x {1.0 5.0 21 ------- null}
+ -t 0.687239999999999 -s 2 -d 3 -p cbr -e 210 -c 2 -i 22 -a 2 -x {1.0 5.0 21 ------- null}
- -t 0.687239999999999 -s 2 -d 3 -p cbr -e 210 -c 2 -i 22 -a 2 -x {1.0 5.0 21 ------- null}
h -t 0.687239999999999 -s 2 -d 3 -p cbr -e 210 -c 2 -i 22 -a 2 -x {1.0 5.0 -1 ------- null}
+ -t 0.69004 -s 3 -d 6 -p cbr -e 210 -c 2 -i 5 -a 2 -x {1.0 5.0 4 ------- null}
- -t 0.69004 -s 3 -d 6 -p cbr -e 210 -c 2 -i 5 -a 2 -x {1.0 5.0 4 ------- null}
h -t 0.69004 -s 3 -d 6 -p cbr -e 210 -c 2 -i 5 -a 2 -x {1.0 5.0 -1 ------- null}
d -t 0.690044 -s 4 -d 6 -p cbr -e 210 -c 2 -i 5 -a 2 -x {1.0 5.0 4 ------- null}
r -t 0.69204 -s 2 -d 3 -p cbr -e 210 -c 2 -i 10 -a 2 -x {1.0 5.0 9 ------- null}
h -t 0.69204 -s 3 -d 6 -p cbr -e 210 -c 2 -i 10 -a 2 -x {1.0 5.0 9 ------- null}
+ -t 0.693199999999999 -s 1 -d 2 -p cbr -e 210 -c 2 -i 24 -a 2 -x {1.0 5.0 23 ------- null}
- -t 0.693199999999999 -s 1 -d 2 -p cbr -e 210 -c 2 -i 24 -a 2 -x {1.0 5.0 23 ------- null}
h -t 0.693199999999999 -s 1 -d 2 -p cbr -e 210 -c 2 -i 24 -a 2 -x {1.0 5.0 -1 ------- null}
r -t 0.695639999999999 -s 1 -d 2 -p cbr -e 210 -c 2 -i 23 -a 2 -x {1.0 5.0 22 ------- null}
+ -t 0.695639999999999 -s 2 -d 3 -p cbr -e 210 -c 2 -i 23 -a 2 -x {1.0 5.0 22 ------- null}
- -t 0.695639999999999 -s 2 -d 3 -p cbr -e 210 -c 2 -i 23 -a 2 -x {1.0 5.0 22 ------- null}
h -t 0.695639999999999 -s 2 -d 3 -p cbr -e 210 -c 2 -i 23 -a 2 -x {1.0 5.0 -1 ------- null}
+ -t 0.69844 -s 3 -d 6 -p cbr -e 210 -c 2 -i 6 -a 2 -x {1.0 5.0 5 ------- null}
- -t 0.69844 -s 3 -d 6 -p cbr -e 210 -c 2 -i 6 -a 2 -x {1.0 5.0 5 ------- null}
h -t 0.69844 -s 3 -d 6 -p cbr -e 210 -c 2 -i 6 -a 2 -x {1.0 5.0 -1 ------- null}
d -t 0.698444 -s 4 -d 6 -p cbr -e 210 -c 2 -i 6 -a 2 -x {1.0 5.0 5 ------- null}
+ -t 0.701599999999999 -s 1 -d 2 -p cbr -e 210 -c 2 -i 25 -a 2 -x {1.0 5.0 24 ------- null}
- -t 0.701599999999999 -s 1 -d 2 -p cbr -e 210 -c 2 -i 25 -a 2 -x {1.0 5.0 24 ------- null}
h -t 0.701599999999999 -s 1 -d 2 -p cbr -e 210 -c 2 -i 25 -a 2 -x {1.0 5.0 -1 ------- null}
r -t 0.704039999999999 -s 1 -d 2 -p cbr -e 210 -c 2 -i 24 -a 2 -x {1.0 5.0 23 ------- null}
+ -t 0.704039999999999 -s 2 -d 3 -p cbr -e 210 -c 2 -i 24 -a 2 -x {1.0 5.0 23 ------- null}
- -t 0.704039999999999 -s 2 -d 3 -p cbr -e 210 -c 2 -i 24 -a 2 -x {1.0 5.0 23 ------- null}
h -t 0.704039999999999 -s 2 -d 3 -p cbr -e 210 -c 2 -i 24 -a 2 -x {1.0 5.0 -1 ------- null}
r -t 0.704844 -s 6 -d 5 -p cbr -e 210 -c 2 -i 2 -a 2 -x {1.0 5.0 1 ------- null}
+ -t 0.70684 -s 3 -d 6 -p cbr -e 210 -c 2 -i 7 -a 2 -x {1.0 5.0 6 ------- null}
- -t 0.70684 -s 3 -d 6 -p cbr -e 210 -c 2 -i 7 -a 2 -x {1.0 5.0 6 ------- null}
h -t 0.70684 -s 3 -d 6 -p cbr -e 210 -c 2 -i 7 -a 2 -x {1.0 5.0 -1 ------- null}
d -t 0.706844 -s 4 -d 6 -p cbr -e 210 -c 2 -i 7 -a 2 -x {1.0 5.0 6 ------- null}
r -t 0.70884 -s 2 -d 3 -p cbr -e 210 -c 2 -i 12 -a 2 -x {1.0 5.0 11 ------- null}
h -t 0.70884 -s 3 -d 6 -p cbr -e 210 -c 2 -i 12 -a 2 -x {1.0 5.0 11 ------- null}
+ -t 0.709999999999999 -s 1 -d 2 -p cbr -e 210 -c 2 -i 26 -a 2 -x {1.0 5.0 25 ------- null}
- -t 0.709999999999999 -s 1 -d 2 -p cbr -e 210 -c 2 -i 26 -a 2 -x {1.0 5.0 25 ------- null}
h -t 0.709999999999999 -s 1 -d 2 -p cbr -e 210 -c 2 -i 26 -a 2 -x {1.0 5.0 -1 ------- null}
r -t 0.712439999999999 -s 1 -d 2 -p cbr -e 210 -c 2 -i 25 -a 2 -x {1.0 5.0 24 ------- null}
+ -t 0.712439999999999 -s 2 -d 3 -p cbr -e 210 -c 2 -i 25 -a 2 -x {1.0 5.0 24 ------- null}
- -t 0.712439999999999 -s 2 -d 3 -p cbr -e 210 -c 2 -i 25 -a 2 -x {1.0 5.0 24 ------- null}
h -t 0.712439999999999 -s 2 -d 3 -p cbr -e 210 -c 2 -i 25 -a 2 -x {1.0 5.0 -1 ------- null}
r -t 0.713244 -s 6 -d 5 -p cbr -e 210 -c 2 -i 3 -a 2 -x {1.0 5.0 2 ------- null}
+ -t 0.71524 -s 3 -d 6 -p cbr -e 210 -c 2 -i 8 -a 2 -x {1.0 5.0 7 ------- null}
- -t 0.71524 -s 3 -d 6 -p cbr -e 210 -c 2 -i 8 -a 2 -x {1.0 5.0 7 ------- null}
h -t 0.71524 -s 3 -d 6 -p cbr -e 210 -c 2 -i 8 -a 2 -x {1.0 5.0 -1 ------- null}
d -t 0.715244 -s 4 -d 6 -p cbr -e 210 -c 2 -i 8 -a 2 -x {1.0 5.0 7 ------- null}
r -t 0.71724 -s 2 -d 3 -p cbr -e 210 -c 2 -i 13 -a 2 -x {1.0 5.0 12 ------- null}
h -t 0.71724 -s 3 -d 6 -p cbr -e 210 -c 2 -i 13 -a 2 -x {1.0 5.0 12 ------- null}
+ -t 0.718399999999999 -s 1 -d 2 -p cbr -e 210 -c 2 -i 27 -a 2 -x {1.0 5.0 26 ------- null}
- -t 0.718399999999999 -s 1 -d 2 -p cbr -e 210 -c 2 -i 27 -a 2 -x {1.0 5.0 26 ------- null}
h -t 0.718399999999999 -s 1 -d 2 -p cbr -e 210 -c 2 -i 27 -a 2 -x {1.0 5.0 -1 ------- null}
r -t 0.720839999999999 -s 1 -d 2 -p cbr -e 210 -c 2 -i 26 -a 2 -x {1.0 5.0 25 ------- null}
+ -t 0.720839999999999 -s 2 -d 3 -p cbr -e 210 -c 2 -i 26 -a 2 -x {1.0 5.0 25 ------- null}
- -t 0.720839999999999 -s 2 -d 3 -p cbr -e 210 -c 2 -i 26 -a 2 -x {1.0 5.0 25 ------- null}
h -t 0.720839999999999 -s 2 -d 3 -p cbr -e 210 -c 2 -i 26 -a 2 -x {1.0 5.0 -1 ------- null}
r -t 0.721644 -s 6 -d 5 -p cbr -e 210 -c 2 -i 4 -a 2 -x {1.0 5.0 3 ------- null}
+ -t 0.72364 -s 3 -d 6 -p cbr -e 210 -c 2 -i 9 -a 2 -x {1.0 5.0 8 ------- null}
- -t 0.72364 -s 3 -d 6 -p cbr -e 210 -c 2 -i 9 -a 2 -x {1.0 5.0 8 ------- null}
h -t 0.72364 -s 3 -d 6 -p cbr -e 210 -c 2 -i 9 -a 2 -x {1.0 5.0 -1 ------- null}
d -t 0.723644 -s 4 -d 6 -p cbr -e 210 -c 2 -i 9 -a 2 -x {1.0 5.0 8 ------- null}
r -t 0.72564 -s 2 -d 3 -p cbr -e 210 -c 2 -i 14 -a 2 -x {1.0 5.0 13 ------- null}
h -t 0.72564 -s 3 -d 6 -p cbr -e 210 -c 2 -i 14 -a 2 -x {1.0 5.0 13 ------- null}
+ -t 0.726799999999999 -s 1 -d 2 -p cbr -e 210 -c 2 -i 28 -a 2 -x {1.0 5.0 27 ------- null}
- -t 0.726799999999999 -s 1 -d 2 -p cbr -e 210 -c 2 -i 28 -a 2 -x {1.0 5.0 27 ------- null}
h -t 0.726799999999999 -s 1 -d 2 -p cbr -e 210 -c 2 -i 28 -a 2 -x {1.0 5.0 -1 ------- null}
r -t 0.729239999999999 -s 1 -d 2 -p cbr -e 210 -c 2 -i 27 -a 2 -x {1.0 5.0 26 ------- null}
+ -t 0.729239999999999 -s 2 -d 3 -p cbr -e 210 -c 2 -i 27 -a 2 -x {1.0 5.0 26 ------- null}
- -t 0.729239999999999 -s 2 -d 3 -p cbr -e 210 -c 2 -i 27 -a 2 -x {1.0 5.0 26 ------- null}
h -t 0.729239999999999 -s 2 -d 3 -p cbr -e 210 -c 2 -i 27 -a 2 -x {1.0 5.0 -1 ------- null}
r -t 0.730044 -s 6 -d 5 -p cbr -e 210 -c 2 -i 5 -a 2 -x {1.0 5.0 4 ------- null}
+ -t 0.73204 -s 3 -d 6 -p cbr -e 210 -c 2 -i 10 -a 2 -x {1.0 5.0 9 ------- null}
- -t 0.73204 -s 3 -d 6 -p cbr -e 210 -c 2 -i 10 -a 2 -x {1.0 5.0 9 ------- null}
h -t 0.73204 -s 3 -d 6 -p cbr -e 210 -c 2 -i 10 -a 2 -x {1.0 5.0 -1 ------- null}
d -t 0.732044 -s 4 -d 6 -p cbr -e 210 -c 2 -i 10 -a 2 -x {1.0 5.0 9 ------- null}
r -t 0.734039999999999 -s 2 -d 3 -p cbr -e 210 -c 2 -i 15 -a 2 -x {1.0 5.0 14 ------- null}
h -t 0.734039999999999 -s 3 -d 6 -p cbr -e 210 -c 2 -i 15 -a 2 -x {1.0 5.0 14 ------- null}
+ -t 0.735199999999999 -s 1 -d 2 -p cbr -e 210 -c 2 -i 29 -a 2 -x {1.0 5.0 28 ------- null}
- -t 0.735199999999999 -s 1 -d 2 -p cbr -e 210 -c 2 -i 29 -a 2 -x {1.0 5.0 28 ------- null}
h -t 0.735199999999999 -s 1 -d 2 -p cbr -e 210 -c 2 -i 29 -a 2 -x {1.0 5.0 -1 ------- null}
r -t 0.737639999999999 -s 1 -d 2 -p cbr -e 210 -c 2 -i 28 -a 2 -x {1.0 5.0 27 ------- null}
+ -t 0.737639999999999 -s 2 -d 3 -p cbr -e 210 -c 2 -i 28 -a 2 -x {1.0 5.0 27 ------- null}
- -t 0.737639999999999 -s 2 -d 3 -p cbr -e 210 -c 2 -i 28 -a 2 -x {1.0 5.0 27 ------- null}
h -t 0.737639999999999 -s 2 -d 3 -p cbr -e 210 -c 2 -i 28 -a 2 -x {1.0 5.0 -1 ------- null}
r -t 0.738444 -s 6 -d 5 -p cbr -e 210 -c 2 -i 6 -a 2 -x {1.0 5.0 5 ------- null}
r -t 0.742439999999999 -s 2 -d 3 -p cbr -e 210 -c 2 -i 16 -a 2 -x {1.0 5.0 15 ------- null}
h -t 0.742439999999999 -s 3 -d 6 -p cbr -e 210 -c 2 -i 16 -a 2 -x {1.0 5.0 15 ------- null}
+ -t 0.743599999999999 -s 1 -d 2 -p cbr -e 210 -c 2 -i 30 -a 2 -x {1.0 5.0 29 ------- null}
- -t 0.743599999999999 -s 1 -d 2 -p cbr -e 210 -c 2 -i 30 -a 2 -x {1.0 5.0 29 ------- null}
h -t 0.743599999999999 -s 1 -d 2 -p cbr -e 210 -c 2 -i 30 -a 2 -x {1.0 5.0 -1 ------- null}
r -t 0.746039999999999 -s 1 -d 2 -p cbr -e 210 -c 2 -i 29 -a 2 -x {1.0 5.0 28 ------- null}
+ -t 0.746039999999999 -s 2 -d 3 -p cbr -e 210 -c 2 -i 29 -a 2 -x {1.0 5.0 28 ------- null}
- -t 0.746039999999999 -s 2 -d 3 -p cbr -e 210 -c 2 -i 29 -a 2 -x {1.0 5.0 28 ------- null}
h -t 0.746039999999999 -s 2 -d 3 -p cbr -e 210 -c 2 -i 29 -a 2 -x {1.0 5.0 -1 ------- null}
r -t 0.746844 -s 6 -d 5 -p cbr -e 210 -c 2 -i 7 -a 2 -x {1.0 5.0 6 ------- null}
+ -t 0.74884 -s 3 -d 6 -p cbr -e 210 -c 2 -i 12 -a 2 -x {1.0 5.0 11 ------- null}
- -t 0.74884 -s 3 -d 6 -p cbr -e 210 -c 2 -i 12 -a 2 -x {1.0 5.0 11 ------- null}
h -t 0.74884 -s 3 -d 6 -p cbr -e 210 -c 2 -i 12 -a 2 -x {1.0 5.0 -1 ------- null}
d -t 0.748844 -s 4 -d 6 -p cbr -e 210 -c 2 -i 12 -a 2 -x {1.0 5.0 11 ------- null}
+ -t 0.751999999999999 -s 1 -d 2 -p cbr -e 210 -c 2 -i 31 -a 2 -x {1.0 5.0 30 ------- null}
- -t 0.751999999999999 -s 1 -d 2 -p cbr -e 210 -c 2 -i 31 -a 2 -x {1.0 5.0 30 ------- null}
h -t 0.751999999999999 -s 1 -d 2 -p cbr -e 210 -c 2 -i 31 -a 2 -x {1.0 5.0 -1 ------- null}
r -t 0.754439999999999 -s 1 -d 2 -p cbr -e 210 -c 2 -i 30 -a 2 -x {1.0 5.0 29 ------- null}
+ -t 0.754439999999999 -s 2 -d 3 -p cbr -e 210 -c 2 -i 30 -a 2 -x {1.0 5.0 29 ------- null}
- -t 0.754439999999999 -s 2 -d 3 -p cbr -e 210 -c 2 -i 30 -a 2 -x {1.0 5.0 29 ------- null}
h -t 0.754439999999999 -s 2 -d 3 -p cbr -e 210 -c 2 -i 30 -a 2 -x {1.0 5.0 -1 ------- null}
r -t 0.755244 -s 6 -d 5 -p cbr -e 210 -c 2 -i 8 -a 2 -x {1.0 5.0 7 ------- null}
+ -t 0.75724 -s 3 -d 6 -p cbr -e 210 -c 2 -i 13 -a 2 -x {1.0 5.0 12 ------- null}
- -t 0.75724 -s 3 -d 6 -p cbr -e 210 -c 2 -i 13 -a 2 -x {1.0 5.0 12 ------- null}
h -t 0.75724 -s 3 -d 6 -p cbr -e 210 -c 2 -i 13 -a 2 -x {1.0 5.0 -1 ------- null}
d -t 0.757244 -s 4 -d 6 -p cbr -e 210 -c 2 -i 13 -a 2 -x {1.0 5.0 12 ------- null}
r -t 0.759239999999999 -s 2 -d 3 -p cbr -e 210 -c 2 -i 18 -a 2 -x {1.0 5.0 17 ------- null}
h -t 0.759239999999999 -s 3 -d 6 -p cbr -e 210 -c 2 -i 18 -a 2 -x {1.0 5.0 17 ------- null}
+ -t 0.760399999999999 -s 1 -d 2 -p cbr -e 210 -c 2 -i 32 -a 2 -x {1.0 5.0 31 ------- null}
- -t 0.760399999999999 -s 1 -d 2 -p cbr -e 210 -c 2 -i 32 -a 2 -x {1.0 5.0 31 ------- null}
h -t 0.760399999999999 -s 1 -d 2 -p cbr -e 210 -c 2 -i 32 -a 2 -x {1.0 5.0 -1 ------- null}
r -t 0.762839999999999 -s 1 -d 2 -p cbr -e 210 -c 2 -i 31 -a 2 -x {1.0 5.0 30 ------- null}
+ -t 0.762839999999999 -s 2 -d 3 -p cbr -e 210 -c 2 -i 31 -a 2 -x {1.0 5.0 30 ------- null}
- -t 0.762839999999999 -s 2 -d 3 -p cbr -e 210 -c 2 -i 31 -a 2 -x {1.0 5.0 30 ------- null}
h -t 0.762839999999999 -s 2 -d 3 -p cbr -e 210 -c 2 -i 31 -a 2 -x {1.0 5.0 -1 ------- null}
r -t 0.763644 -s 6 -d 5 -p cbr -e 210 -c 2 -i 9 -a 2 -x {1.0 5.0 8 ------- null}
+ -t 0.76564 -s 3 -d 6 -p cbr -e 210 -c 2 -i 14 -a 2 -x {1.0 5.0 13 ------- null}
- -t 0.76564 -s 3 -d 6 -p cbr -e 210 -c 2 -i 14 -a 2 -x {1.0 5.0 13 ------- null}
h -t 0.76564 -s 3 -d 6 -p cbr -e 210 -c 2 -i 14 -a 2 -x {1.0 5.0 -1 ------- null}
d -t 0.765644 -s 4 -d 6 -p cbr -e 210 -c 2 -i 14 -a 2 -x {1.0 5.0 13 ------- null}
r -t 0.767639999999999 -s 2 -d 3 -p cbr -e 210 -c 2 -i 19 -a 2 -x {1.0 5.0 18 ------- null}
h -t 0.767639999999999 -s 3 -d 6 -p cbr -e 210 -c 2 -i 19 -a 2 -x {1.0 5.0 18 ------- null}
+ -t 0.768799999999999 -s 1 -d 2 -p cbr -e 210 -c 2 -i 33 -a 2 -x {1.0 5.0 32 ------- null}
- -t 0.768799999999999 -s 1 -d 2 -p cbr -e 210 -c 2 -i 33 -a 2 -x {1.0 5.0 32 ------- null}
h -t 0.768799999999999 -s 1 -d 2 -p cbr -e 210 -c 2 -i 33 -a 2 -x {1.0 5.0 -1 ------- null}
r -t 0.771239999999999 -s 1 -d 2 -p cbr -e 210 -c 2 -i 32 -a 2 -x {1.0 5.0 31 ------- null}
+ -t 0.771239999999999 -s 2 -d 3 -p cbr -e 210 -c 2 -i 32 -a 2 -x {1.0 5.0 31 ------- null}
- -t 0.771239999999999 -s 2 -d 3 -p cbr -e 210 -c 2 -i 32 -a 2 -x {1.0 5.0 31 ------- null}
h -t 0.771239999999999 -s 2 -d 3 -p cbr -e 210 -c 2 -i 32 -a 2 -x {1.0 5.0 -1 ------- null}
r -t 0.772044 -s 6 -d 5 -p cbr -e 210 -c 2 -i 10 -a 2 -x {1.0 5.0 9 ------- null}
+ -t 0.77404 -s 3 -d 6 -p cbr -e 210 -c 2 -i 15 -a 2 -x {1.0 5.0 14 ------- null}
- -t 0.77404 -s 3 -d 6 -p cbr -e 210 -c 2 -i 15 -a 2 -x {1.0 5.0 14 ------- null}
h -t 0.77404 -s 3 -d 6 -p cbr -e 210 -c 2 -i 15 -a 2 -x {1.0 5.0 -1 ------- null}
d -t 0.774044 -s 4 -d 6 -p cbr -e 210 -c 2 -i 15 -a 2 -x {1.0 5.0 14 ------- null}
r -t 0.776039999999999 -s 2 -d 3 -p cbr -e 210 -c 2 -i 20 -a 2 -x {1.0 5.0 19 ------- null}
h -t 0.776039999999999 -s 3 -d 6 -p cbr -e 210 -c 2 -i 20 -a 2 -x {1.0 5.0 19 ------- null}
+ -t 0.777199999999999 -s 1 -d 2 -p cbr -e 210 -c 2 -i 34 -a 2 -x {1.0 5.0 33 ------- null}
- -t 0.777199999999999 -s 1 -d 2 -p cbr -e 210 -c 2 -i 34 -a 2 -x {1.0 5.0 33 ------- null}
h -t 0.777199999999999 -s 1 -d 2 -p cbr -e 210 -c 2 -i 34 -a 2 -x {1.0 5.0 -1 ------- null}
r -t 0.779639999999999 -s 1 -d 2 -p cbr -e 210 -c 2 -i 33 -a 2 -x {1.0 5.0 32 ------- null}
+ -t 0.779639999999999 -s 2 -d 3 -p cbr -e 210 -c 2 -i 33 -a 2 -x {1.0 5.0 32 ------- null}
- -t 0.779639999999999 -s 2 -d 3 -p cbr -e 210 -c 2 -i 33 -a 2 -x {1.0 5.0 32 ------- null}
h -t 0.779639999999999 -s 2 -d 3 -p cbr -e 210 -c 2 -i 33 -a 2 -x {1.0 5.0 -1 ------- null}
+ -t 0.782439999999999 -s 3 -d 6 -p cbr -e 210 -c 2 -i 16 -a 2 -x {1.0 5.0 15 ------- null}
- -t 0.782439999999999 -s 3 -d 6 -p cbr -e 210 -c 2 -i 16 -a 2 -x {1.0 5.0 15 ------- null}
h -t 0.782439999999999 -s 3 -d 6 -p cbr -e 210 -c 2 -i 16 -a 2 -x {1.0 5.0 -1 ------- null}
d -t 0.782443999999999 -s 4 -d 6 -p cbr -e 210 -c 2 -i 16 -a 2 -x {1.0 5.0 15 ------- null}
r -t 0.784439999999999 -s 2 -d 3 -p cbr -e 210 -c 2 -i 21 -a 2 -x {1.0 5.0 20 ------- null}
h -t 0.784439999999999 -s 3 -d 6 -p cbr -e 210 -c 2 -i 21 -a 2 -x {1.0 5.0 20 ------- null}
+ -t 0.785599999999999 -s 1 -d 2 -p cbr -e 210 -c 2 -i 35 -a 2 -x {1.0 5.0 34 ------- null}
- -t 0.785599999999999 -s 1 -d 2 -p cbr -e 210 -c 2 -i 35 -a 2 -x {1.0 5.0 34 ------- null}
h -t 0.785599999999999 -s 1 -d 2 -p cbr -e 210 -c 2 -i 35 -a 2 -x {1.0 5.0 -1 ------- null}
r -t 0.788039999999999 -s 1 -d 2 -p cbr -e 210 -c 2 -i 34 -a 2 -x {1.0 5.0 33 ------- null}
+ -t 0.788039999999999 -s 2 -d 3 -p cbr -e 210 -c 2 -i 34 -a 2 -x {1.0 5.0 33 ------- null}
- -t 0.788039999999999 -s 2 -d 3 -p cbr -e 210 -c 2 -i 34 -a 2 -x {1.0 5.0 33 ------- null}