+ 0 0 2 tcp 40 ------- 1 0.0 4.0 0 0
- 0 0 2 tcp 40 ------- 1 0.0 4.0 0 0
r 0.01016 0 2 tcp 40 ------- 1 0.0 4.0 0 0
d 0.01016 2 3 tcp 40 ------- 1 0.0 4.0 0 0
+ 0.5 1 2 cbr 210 ------- 2 1.0 5.0 0 1
- 0.5 1 2 cbr 210 ------- 2 1.0 5.0 0 1
+ 0.5084 1 2 cbr 210 ------- 2 1.0 5.0 1 2
- 0.5084 1 2 cbr 210 ------- 2 1.0 5.0 1 2
r 0.51084 1 2 cbr 210 ------- 2 1.0 5.0 0 1
d 0.51084 2 3 cbr 210 ------- 2 1.0 5.0 0 1
+ 0.5168 1 2 cbr 210 ------- 2 1.0 5.0 2 3
- 0.5168 1 2 cbr 210 ------- 2 1.0 5.0 2 3
r 0.51924 1 2 cbr 210 ------- 2 1.0 5.0 1 2
+ 0.51924 2 3 cbr 210 ------- 2 1.0 5.0 1 2
- 0.51924 2 3 cbr 210 ------- 2 1.0 5.0 1 2
+ 0.5252 1 2 cbr 210 ------- 2 1.0 5.0 3 4
- 0.5252 1 2 cbr 210 ------- 2 1.0 5.0 3 4
r 0.52764 1 2 cbr 210 ------- 2 1.0 5.0 2 3
+ 0.52764 2 3 cbr 210 ------- 2 1.0 5.0 2 3
- 0.52764 2 3 cbr 210 ------- 2 1.0 5.0 2 3
+ 0.5336 1 2 cbr 210 ------- 2 1.0 5.0 4 5
- 0.5336 1 2 cbr 210 ------- 2 1.0 5.0 4 5
r 0.53604 1 2 cbr 210 ------- 2 1.0 5.0 3 4
+ 0.53604 2 3 cbr 210 ------- 2 1.0 5.0 3 4
- 0.53604 2 3 cbr 210 ------- 2 1.0 5.0 3 4
+ 0.542 1 2 cbr 210 ------- 2 1.0 5.0 5 6
- 0.542 1 2 cbr 210 ------- 2 1.0 5.0 5 6
r 0.54444 1 2 cbr 210 ------- 2 1.0 5.0 4 5
+ 0.54444 2 3 cbr 210 ------- 2 1.0 5.0 4 5
- 0.54444 2 3 cbr 210 ------- 2 1.0 5.0 4 5
+ 0.5504 1 2 cbr 210 ------- 2 1.0 5.0 6 7
- 0.5504 1 2 cbr 210 ------- 2 1.0 5.0 6 7
r 0.55284 1 2 cbr 210 ------- 2 1.0 5.0 5 6
+ 0.55284 2 3 cbr 210 ------- 2 1.0 5.0 5 6
- 0.55284 2 3 cbr 210 ------- 2 1.0 5.0 5 6
+ 0.5588 1 2 cbr 210 ------- 2 1.0 5.0 7 8
- 0.5588 1 2 cbr 210 ------- 2 1.0 5.0 7 8
r 0.56124 1 2 cbr 210 ------- 2 1.0 5.0 6 7
+ 0.56124 2 3 cbr 210 ------- 2 1.0 5.0 6 7
- 0.56124 2 3 cbr 210 ------- 2 1.0 5.0 6 7
+ 0.5672 1 2 cbr 210 ------- 2 1.0 5.0 8 9
- 0.5672 1 2 cbr 210 ------- 2 1.0 5.0 8 9
r 0.56964 1 2 cbr 210 ------- 2 1.0 5.0 7 8
+ 0.56964 2 3 cbr 210 ------- 2 1.0 5.0 7 8
- 0.56964 2 3 cbr 210 ------- 2 1.0 5.0 7 8
+ 0.5756 1 2 cbr 210 ------- 2 1.0 5.0 9 10
- 0.5756 1 2 cbr 210 ------- 2 1.0 5.0 9 10
r 0.57804 1 2 cbr 210 ------- 2 1.0 5.0 8 9
+ 0.57804 2 3 cbr 210 ------- 2 1.0 5.0 8 9
- 0.57804 2 3 cbr 210 ------- 2 1.0 5.0 8 9
+ 0.584 1 2 cbr 210 ------- 2 1.0 5.0 10 11
- 0.584 1 2 cbr 210 ------- 2 1.0 5.0 10 11
r 0.58644 1 2 cbr 210 ------- 2 1.0 5.0 9 10
+ 0.58644 2 3 cbr 210 ------- 2 1.0 5.0 9 10
- 0.58644 2 3 cbr 210 ------- 2 1.0 5.0 9 10
+ 0.5924 1 2 cbr 210 ------- 2 1.0 5.0 11 12
- 0.5924 1 2 cbr 210 ------- 2 1.0 5.0 11 12
r 0.59484 1 2 cbr 210 ------- 2 1.0 5.0 10 11
d 0.59484 2 3 cbr 210 ------- 2 1.0 5.0 10 11
+ 0.6008 1 2 cbr 210 ------- 2 1.0 5.0 12 13
- 0.6008 1 2 cbr 210 ------- 2 1.0 5.0 12 13
r 0.60324 1 2 cbr 210 ------- 2 1.0 5.0 11 12
+ 0.60324 2 3 cbr 210 ------- 2 1.0 5.0 11 12
- 0.60324 2 3 cbr 210 ------- 2 1.0 5.0 11 12
+ 0.6092 1 2 cbr 210 ------- 2 1.0 5.0 13 14
- 0.6092 1 2 cbr 210 ------- 2 1.0 5.0 13 14
r 0.61164 1 2 cbr 210 ------- 2 1.0 5.0 12 13
+ 0.61164 2 3 cbr 210 ------- 2 1.0 5.0 12 13
- 0.61164 2 3 cbr 210 ------- 2 1.0 5.0 12 13
+ 0.6176 1 2 cbr 210 ------- 2 1.0 5.0 14 15
- 0.6176 1 2 cbr 210 ------- 2 1.0 5.0 14 15
r 0.62004 1 2 cbr 210 ------- 2 1.0 5.0 13 14
+ 0.62004 2 3 cbr 210 ------- 2 1.0 5.0 13 14
- 0.62004 2 3 cbr 210 ------- 2 1.0 5.0 13 14
r 0.62484 2 3 cbr 210 ------- 2 1.0 5.0 1 2
h 0.62484 3 6 cbr 210 ------- 2 1.0 5.0 1 2
+ 0.626 1 2 cbr 210 ------- 2 1.0 5.0 15 16
- 0.626 1 2 cbr 210 ------- 2 1.0 5.0 15 16
r 0.62844 1 2 cbr 210 ------- 2 1.0 5.0 14 15
+ 0.62844 2 3 cbr 210 ------- 2 1.0 5.0 14 15
- 0.62844 2 3 cbr 210 ------- 2 1.0 5.0 14 15
r 0.63324 2 3 cbr 210 ------- 2 1.0 5.0 2 3
h 0.63324 3 6 cbr 210 ------- 2 1.0 5.0 2 3
+ 0.6344 1 2 cbr 210 ------- 2 1.0 5.0 16 17
- 0.6344 1 2 cbr 210 ------- 2 1.0 5.0 16 17
r 0.63684 1 2 cbr 210 ------- 2 1.0 5.0 15 16
+ 0.63684 2 3 cbr 210 ------- 2 1.0 5.0 15 16
- 0.63684 2 3 cbr 210 ------- 2 1.0 5.0 15 16
r 0.64164 2 3 cbr 210 ------- 2 1.0 5.0 3 4
h 0.64164 3 6 cbr 210 ------- 2 1.0 5.0 3 4
+ 0.6428 1 2 cbr 210 ------- 2 1.0 5.0 17 18
- 0.6428 1 2 cbr 210 ------- 2 1.0 5.0 17 18
r 0.64524 1 2 cbr 210 ------- 2 1.0 5.0 16 17
d 0.64524 2 3 cbr 210 ------- 2 1.0 5.0 16 17
r 0.65004 2 3 cbr 210 ------- 2 1.0 5.0 4 5
h 0.65004 3 6 cbr 210 ------- 2 1.0 5.0 4 5
+ 0.6512 1 2 cbr 210 ------- 2 1.0 5.0 18 19
- 0.6512 1 2 cbr 210 ------- 2 1.0 5.0 18 19
r 0.65364 1 2 cbr 210 ------- 2 1.0 5.0 17 18
+ 0.65364 2 3 cbr 210 ------- 2 1.0 5.0 17 18
- 0.65364 2 3 cbr 210 ------- 2 1.0 5.0 17 18
r 0.65844 2 3 cbr 210 ------- 2 1.0 5.0 5 6
h 0.65844 3 6 cbr 210 ------- 2 1.0 5.0 5 6
+ 0.6596 1 2 cbr 210 ------- 2 1.0 5.0 19 20
- 0.6596 1 2 cbr 210 ------- 2 1.0 5.0 19 20
r 0.66204 1 2 cbr 210 ------- 2 1.0 5.0 18 19
+ 0.66204 2 3 cbr 210 ------- 2 1.0 5.0 18 19
- 0.66204 2 3 cbr 210 ------- 2 1.0 5.0 18 19
+ 0.66484 3 6 cbr 210 ------- 2 1.0 5.0 1 2
- 0.66484 3 6 cbr 210 ------- 2 1.0 5.0 1 2
d 0.664844 4 6 cbr 210 ------- 2 1.0 5.0 1 2
r 0.66684 2 3 cbr 210 ------- 2 1.0 5.0 6 7
h 0.66684 3 6 cbr 210 ------- 2 1.0 5.0 6 7
+ 0.668 1 2 cbr 210 ------- 2 1.0 5.0 20 21
- 0.668 1 2 cbr 210 ------- 2 1.0 5.0 20 21
r 0.67044 1 2 cbr 210 ------- 2 1.0 5.0 19 20
+ 0.67044 2 3 cbr 210 ------- 2 1.0 5.0 19 20
- 0.67044 2 3 cbr 210 ------- 2 1.0 5.0 19 20
+ 0.67324 3 6 cbr 210 ------- 2 1.0 5.0 2 3
- 0.67324 3 6 cbr 210 ------- 2 1.0 5.0 2 3
d 0.673244 4 6 cbr 210 ------- 2 1.0 5.0 2 3
r 0.67524 2 3 cbr 210 ------- 2 1.0 5.0 7 8
h 0.67524 3 6 cbr 210 ------- 2 1.0 5.0 7 8
+ 0.6764 1 2 cbr 210 ------- 2 1.0 5.0 21 22
- 0.6764 1 2 cbr 210 ------- 2 1.0 5.0 21 22
r 0.67884 1 2 cbr 210 ------- 2 1.0 5.0 20 21
+ 0.67884 2 3 cbr 210 ------- 2 1.0 5.0 20 21
- 0.67884 2 3 cbr 210 ------- 2 1.0 5.0 20 21
+ 0.68164 3 6 cbr 210 ------- 2 1.0 5.0 3 4
- 0.68164 3 6 cbr 210 ------- 2 1.0 5.0 3 4
d 0.681644 4 6 cbr 210 ------- 2 1.0 5.0 3 4
r 0.68364 2 3 cbr 210 ------- 2 1.0 5.0 8 9
h 0.68364 3 6 cbr 210 ------- 2 1.0 5.0 8 9
+ 0.6848 1 2 cbr 210 ------- 2 1.0 5.0 22 23
- 0.6848 1 2 cbr 210 ------- 2 1.0 5.0 22 23
r 0.68724 1 2 cbr 210 ------- 2 1.0 5.0 21 22
+ 0.68724 2 3 cbr 210 ------- 2 1.0 5.0 21 22
- 0.68724 2 3 cbr 210 ------- 2 1.0 5.0 21 22
+ 0.69004 3 6 cbr 210 ------- 2 1.0 5.0 4 5
- 0.69004 3 6 cbr 210 ------- 2 1.0 5.0 4 5
d 0.690044 4 6 cbr 210 ------- 2 1.0 5.0 4 5
r 0.69204 2 3 cbr 210 ------- 2 1.0 5.0 9 10
h 0.69204 3 6 cbr 210 ------- 2 1.0 5.0 9 10
+ 0.6932 1 2 cbr 210 ------- 2 1.0 5.0 23 24
- 0.6932 1 2 cbr 210 ------- 2 1.0 5.0 23 24
r 0.69564 1 2 cbr 210 ------- 2 1.0 5.0 22 23
+ 0.69564 2 3 cbr 210 ------- 2 1.0 5.0 22 23
- 0.69564 2 3 cbr 210 ------- 2 1.0 5.0 22 23
+ 0.69844 3 6 cbr 210 ------- 2 1.0 5.0 5 6
- 0.69844 3 6 cbr 210 ------- 2 1.0 5.0 5 6
d 0.698444 4 6 cbr 210 ------- 2 1.0 5.0 5 6
+ 0.7016 1 2 cbr 210 ------- 2 1.0 5.0 24 25
- 0.7016 1 2 cbr 210 ------- 2 1.0 5.0 24 25
r 0.70404 1 2 cbr 210 ------- 2 1.0 5.0 23 24
+ 0.70404 2 3 cbr 210 ------- 2 1.0 5.0 23 24
- 0.70404 2 3 cbr 210 ------- 2 1.0 5.0 23 24
r 0.704844 6 5 cbr 210 ------- 2 1.0 5.0 1 2
+ 0.70684 3 6 cbr 210 ------- 2 1.0 5.0 6 7
- 0.70684 3 6 cbr 210 ------- 2 1.0 5.0 6 7
d 0.706844 4 6 cbr 210 ------- 2 1.0 5.0 6 7
r 0.70884 2 3 cbr 210 ------- 2 1.0 5.0 11 12
h 0.70884 3 6 cbr 210 ------- 2 1.0 5.0 11 12
+ 0.71 1 2 cbr 210 ------- 2 1.0 5.0 25 26
- 0.71 1 2 cbr 210 ------- 2 1.0 5.0 25 26
r 0.71244 1 2 cbr 210 ------- 2 1.0 5.0 24 25
+ 0.71244 2 3 cbr 210 ------- 2 1.0 5.0 24 25
- 0.71244 2 3 cbr 210 ------- 2 1.0 5.0 24 25
r 0.713244 6 5 cbr 210 ------- 2 1.0 5.0 2 3
+ 0.71524 3 6 cbr 210 ------- 2 1.0 5.0 7 8
- 0.71524 3 6 cbr 210 ------- 2 1.0 5.0 7 8
d 0.715244 4 6 cbr 210 ------- 2 1.0 5.0 7 8
r 0.71724 2 3 cbr 210 ------- 2 1.0 5.0 12 13
h 0.71724 3 6 cbr 210 ------- 2 1.0 5.0 12 13
+ 0.7184 1 2 cbr 210 ------- 2 1.0 5.0 26 27
- 0.7184 1 2 cbr 210 ------- 2 1.0 5.0 26 27
r 0.72084 1 2 cbr 210 ------- 2 1.0 5.0 25 26
+ 0.72084 2 3 cbr 210 ------- 2 1.0 5.0 25 26
- 0.72084 2 3 cbr 210 ------- 2 1.0 5.0 25 26
r 0.721644 6 5 cbr 210 ------- 2 1.0 5.0 3 4
+ 0.72364 3 6 cbr 210 ------- 2 1.0 5.0 8 9
- 0.72364 3 6 cbr 210 ------- 2 1.0 5.0 8 9
d 0.723644 4 6 cbr 210 ------- 2 1.0 5.0 8 9
r 0.72564 2 3 cbr 210 ------- 2 1.0 5.0 13 14
h 0.72564 3 6 cbr 210 ------- 2 1.0 5.0 13 14
+ 0.7268 1 2 cbr 210 ------- 2 1.0 5.0 27 28
- 0.7268 1 2 cbr 210 ------- 2 1.0 5.0 27 28
r 0.72924 1 2 cbr 210 ------- 2 1.0 5.0 26 27
+ 0.72924 2 3 cbr 210 ------- 2 1.0 5.0 26 27
- 0.72924 2 3 cbr 210 ------- 2 1.0 5.0 26 27
r 0.730044 6 5 cbr 210 ------- 2 1.0 5.0 4 5
+ 0.73204 3 6 cbr 210 ------- 2 1.0 5.0 9 10
- 0.73204 3 6 cbr 210 ------- 2 1.0 5.0 9 10
d 0.732044 4 6 cbr 210 ------- 2 1.0 5.0 9 10
r 0.73404 2 3 cbr 210 ------- 2 1.0 5.0 14 15
h 0.73404 3 6 cbr 210 ------- 2 1.0 5.0 14 15
+ 0.7352 1 2 cbr 210 ------- 2 1.0 5.0 28 29
- 0.7352 1 2 cbr 210 ------- 2 1.0 5.0 28 29
r 0.73764 1 2 cbr 210 ------- 2 1.0 5.0 27 28
+ 0.73764 2 3 cbr 210 ------- 2 1.0 5.0 27 28
- 0.73764 2 3 cbr 210 ------- 2 1.0 5.0 27 28
r 0.738444 6 5 cbr 210 ------- 2 1.0 5.0 5 6
r 0.74244 2 3 cbr 210 ------- 2 1.0 5.0 15 16
h 0.74244 3 6 cbr 210 ------- 2 1.0 5.0 15 16
+ 0.7436 1 2 cbr 210 ------- 2 1.0 5.0 29 30
- 0.7436 1 2 cbr 210 ------- 2 1.0 5.0 29 30
r 0.74604 1 2 cbr 210 ------- 2 1.0 5.0 28 29
+ 0.74604 2 3 cbr 210 ------- 2 1.0 5.0 28 29
- 0.74604 2 3 cbr 210 ------- 2 1.0 5.0 28 29
r 0.746844 6 5 cbr 210 ------- 2 1.0 5.0 6 7
+ 0.74884 3 6 cbr 210 ------- 2 1.0 5.0 11 12
- 0.74884 3 6 cbr 210 ------- 2 1.0 5.0 11 12
d 0.748844 4 6 cbr 210 ------- 2 1.0 5.0 11 12
+ 0.752 1 2 cbr 210 ------- 2 1.0 5.0 30 31
- 0.752 1 2 cbr 210 ------- 2 1.0 5.0 30 31
r 0.75444 1 2 cbr 210 ------- 2 1.0 5.0 29 30
+ 0.75444 2 3 cbr 210 ------- 2 1.0 5.0 29 30
- 0.75444 2 3 cbr 210 ------- 2 1.0 5.0 29 30
r 0.755244 6 5 cbr 210 ------- 2 1.0 5.0 7 8
+ 0.75724 3 6 cbr 210 ------- 2 1.0 5.0 12 13
- 0.75724 3 6 cbr 210 ------- 2 1.0 5.0 12 13
d 0.757244 4 6 cbr 210 ------- 2 1.0 5.0 12 13
r 0.75924 2 3 cbr 210 ------- 2 1.0 5.0 17 18
h 0.75924 3 6 cbr 210 ------- 2 1.0 5.0 17 18
+ 0.7604 1 2 cbr 210 ------- 2 1.0 5.0 31 32
- 0.7604 1 2 cbr 210 ------- 2 1.0 5.0 31 32
r 0.76284 1 2 cbr 210 ------- 2 1.0 5.0 30 31
+ 0.76284 2 3 cbr 210 ------- 2 1.0 5.0 30 31
- 0.76284 2 3 cbr 210 ------- 2 1.0 5.0 30 31
r 0.763644 6 5 cbr 210 ------- 2 1.0 5.0 8 9
+ 0.76564 3 6 cbr 210 ------- 2 1.0 5.0 13 14
- 0.76564 3 6 cbr 210 ------- 2 1.0 5.0 13 14
d 0.765644 4 6 cbr 210 ------- 2 1.0 5.0 13 14
r 0.76764 2 3 cbr 210 ------- 2 1.0 5.0 18 19
h 0.76764 3 6 cbr 210 ------- 2 1.0 5.0 18 19
+ 0.7688 1 2 cbr 210 ------- 2 1.0 5.0 32 33
- 0.7688 1 2 cbr 210 ------- 2 1.0 5.0 32 33
r 0.77124 1 2 cbr 210 ------- 2 1.0 5.0 31 32
+ 0.77124 2 3 cbr 210 ------- 2 1.0 5.0 31 32
- 0.77124 2 3 cbr 210 ------- 2 1.0 5.0 31 32
r 0.772044 6 5 cbr 210 ------- 2 1.0 5.0 9 10
+ 0.77404 3 6 cbr 210 ------- 2 1.0 5.0 14 15
- 0.77404 3 6 cbr 210 ------- 2 1.0 5.0 14 15
d 0.774044 4 6 cbr 210 ------- 2 1.0 5.0 14 15
r 0.77604 2 3 cbr 210 ------- 2 1.0 5.0 19 20
h 0.77604 3 6 cbr 210 ------- 2 1.0 5.0 19 20
+ 0.7772 1 2 cbr 210 ------- 2 1.0 5.0 33 34
- 0.7772 1 2 cbr 210 ------- 2 1.0 5.0 33 34
r 0.77964 1 2 cbr 210 ------- 2 1.0 5.0 32 33
+ 0.77964 2 3 cbr 210 ------- 2 1.0 5.0 32 33
- 0.77964 2 3 cbr 210 ------- 2 1.0 5.0 32 33
+ 0.78244 3 6 cbr 210 ------- 2 1.0 5.0 15 16
- 0.78244 3 6 cbr 210 ------- 2 1.0 5.0 15 16
d 0.782444 4 6 cbr 210 ------- 2 1.0 5.0 15 16
r 0.78444 2 3 cbr 210 ------- 2 1.0 5.0 20 21
h 0.78444 3 6 cbr 210 ------- 2 1.0 5.0 20 21
+ 0.7856 1 2 cbr 210 ------- 2 1.0 5.0 34 35
- 0.7856 1 2 cbr 210 ------- 2 1.0 5.0 34 35
r 0.78804 1 2 cbr 210 ------- 2 1.0 5.0 33 34
+ 0.78804 2 3 cbr 210 ------- 2 1.0 5.0 33 34
- 0.78804 2 3 cbr 210 ------- 2 1.0 5.0 33 34
r 0.788844 6 5 cbr 210 ------- 2 1.0 5.0 11 12
r 0.79284 2 3 cbr 210 ------- 2 1.0 5.0 21 22
h 0.79284 3 6 cbr 210 ------- 2 1.0 5.0 21 22
+ 0.794 1 2 cbr 210 ------- 2 1.0 5.0 35 36
- 0.794 1 2 cbr 210 ------- 2 1.0 5.0 35 36
r 0.79644 1 2 cbr 210 ------- 2 1.0 5.0 34 35
+ 0.79644 2 3 cbr 210 ------- 2 1.0 5.0 34 35
- 0.79644 2 3 cbr 210 ------- 2 1.0 5.0 34 35
r 0.797244 6 5 cbr 210 ------- 2 1.0 5.0 12 13
+ 0.79924 3 6 cbr 210 ------- 2 1.0 5.0 17 18
- 0.79924 3 6 cbr 210 ------- 2 1.0 5.0 17 18
d 0.799244 4 6 cbr 210 ------- 2 1.0 5.0 17 18
r 0.80124 2 3 cbr 210 ------- 2 1.0 5.0 22 23
h 0.80124 3 6 cbr 210 ------- 2 1.0 5.0 22 23
+ 0.8024 1 2 cbr 210 ------- 2 1.0 5.0 36 37
- 0.8024 1 2 cbr 210 ------- 2 1.0 5.0 36 37
r 0.80484 1 2 cbr 210 ------- 2 1.0 5.0 35 36
+ 0.80484 2 3 cbr 210 ------- 2 1.0 5.0 35 36
- 0.80484 2 3 cbr 210 ------- 2 1.0 5.0 35 36
r 0.805644 6 5 cbr 210 ------- 2 1.0 5.0 13 14
+ 0.80764 3 6 cbr 210 ------- 2 1.0 5.0 18 19
- 0.80764 3 6 cbr 210 ------- 2 1.0 5.0 18 19
d 0.807644 4 6 cbr 210 ------- 2 1.0 5.0 18 19
r 0.80964 2 3 cbr 210 ------- 2 1.0 5.0 23 24
h 0.80964 3 6 cbr 210 ------- 2 1.0 5.0 23 24
+ 0.8108 1 2 cbr 210 ------- 2 1.0 5.0 37 38
- 0.8108 1 2 cbr 210 ------- 2 1.0 5.0 37 38
r 0.81324 1 2 cbr 210 ------- 2 1.0 5.0 36 37
+ 0.81324 2 3 cbr 210 ------- 2 1.0 5.0 36 37
- 0.81324 2 3 cbr 210 ------- 2 1.0 5.0 36 37
r 0.814044 6 5 cbr 210 ------- 2 1.0 5.0 14 15
+ 0.81604 3 6 cbr 210 ------- 2 1.0 5.0 19 20
- 0.81604 3 6 cbr 210 ------- 2 1.0 5.0 19 20
d 0.816044 4 6 cbr 210 ------- 2 1.0 5.0 19 20
r 0.81804 2 3 cbr 210 ------- 2 1.0 5.0 24 25
h 0.81804 3 6 cbr 210 ------- 2 1.0 5.0 24 25
+ 0.8192 1 2 cbr 210 ------- 2 1.0 5.0 38 39
- 0.8192 1 2 cbr 210 ------- 2 1.0 5.0 38 39
r 0.82164 1 2 cbr 210 ------- 2 1.0 5.0 37 38
+ 0.82164 2 3 cbr 210 ------- 2 1.0 5.0 37 38
- 0.82164 2 3 cbr 210 ------- 2 1.0 5.0 37 38
r 0.822444 6 5 cbr 210 ------- 2 1.0 5.0 15 16
+ 0.82444 3 6 cbr 210 ------- 2 1.0 5.0 20 21
- 0.82444 3 6 cbr 210 ------- 2 1.0 5.0 20 21
d 0.824444 4 6 cbr 210 ------- 2 1.0 5.0 20 21
r 0.82644 2 3 cbr 210 ------- 2 1.0 5.0 25 26
h 0.82644 3 6 cbr 210 ------- 2 1.0 5.0 25 26
+ 0.8276 1 2 cbr 210 ------- 2 1.0 5.0 39 40
- 0.8276 1 2 cbr 210 ------- 2 1.0 5.0 39 40
r 0.83004 1 2 cbr 210 ------- 2 1.0 5.0 38 39
+ 0.83004 2 3 cbr 210 ------- 2 1.0 5.0 38 39
- 0.83004 2 3 cbr 210 ------- 2 1.0 5.0 38 39
+ 0.83284 3 6 cbr 210 ------- 2 1.0 5.0 21 22
- 0.83284 3 6 cbr 210 ------- 2 1.0 5.0 21 22
d 0.832844 4 6 cbr 210 ------- 2 1.0 5.0 21 22
r 0.83484 2 3 cbr 210 ------- 2 1.0 5.0 26 27
h 0.83484 3 6 cbr 210 ------- 2 1.0 5.0 26 27
+ 0.836 1 2 cbr 210 ------- 2 1.0 5.0 40 41
- 0.836 1 2 cbr 210 ------- 2 1.0 5.0 40 41
r 0.83844 1 2 cbr 210 ------- 2 1.0 5.0 39 40
+ 0.83844 2 3 cbr 210 ------- 2 1.0 5.0 39 40
- 0.83844 2 3 cbr 210 ------- 2 1.0 5.0 39 40
r 0.839244 6 5 cbr 210 ------- 2 1.0 5.0 17 18
+ 0.84124 3 6 cbr 210 ------- 2 1.0 5.0 22 23
- 0.84124 3 6 cbr 210 ------- 2 1.0 5.0 22 23
d 0.841244 4 6 cbr 210 ------- 2 1.0 5.0 22 23
r 0.84324 2 3 cbr 210 ------- 2 1.0 5.0 27 28
h 0.84324 3 6 cbr 210 ------- 2 1.0 5.0 27 28
+ 0.8444 1 2 cbr 210 ------- 2 1.0 5.0 41 42
- 0.8444 1 2 cbr 210 ------- 2 1.0 5.0 41 42
r 0.84684 1 2 cbr 210 ------- 2 1.0 5.0 40 41
d 0.84684 2 3 cbr 210 ------- 2 1.0 5.0 40 41
r 0.847644 6 5 cbr 210 ------- 2 1.0 5.0 18 19
+ 0.84964 3 6 cbr 210 ------- 2 1.0 5.0 23 24
- 0.84964 3 6 cbr 210 ------- 2 1.0 5.0 23 24
d 0.849644 4 6 cbr 210 ------- 2 1.0 5.0 23 24
r 0.85164 2 3 cbr 210 ------- 2 1.0 5.0 28 29
h 0.85164 3 6 cbr 210 ------- 2 1.0 5.0 28 29
+ 0.8528 1 2 cbr 210 ------- 2 1.0 5.0 42 43
- 0.8528 1 2 cbr 210 ------- 2 1.0 5.0 42 43
r 0.85524 1 2 cbr 210 ------- 2 1.0 5.0 41 42
d 0.85524 2 3 cbr 210 ------- 2 1.0 5.0 41 42
r 0.856044 6 5 cbr 210 ------- 2 1.0 5.0 19 20
+ 0.85804 3 6 cbr 210 ------- 2 1.0 5.0 24 25
- 0.85804 3 6 cbr 210 ------- 2 1.0 5.0 24 25
d 0.858044 4 6 cbr 210 ------- 2 1.0 5.0 24 25
r 0.86004 2 3 cbr 210 ------- 2 1.0 5.0 29 30
h 0.86004 3 6 cbr 210 ------- 2 1.0 5.0 29 30
+ 0.8612 1 2 cbr 210 ------- 2 1.0 5.0 43 44
- 0.8612 1 2 cbr 210 ------- 2 1.0 5.0 43 44
r 0.86364 1 2 cbr 210 ------- 2 1.0 5.0 42 43
+ 0.86364 2 3 cbr 210 ------- 2 1.0 5.0 42 43
- 0.86364 2 3 cbr 210 ------- 2 1.0 5.0 42 43
r 0.864444 6 5 cbr 210 ------- 2 1.0 5.0 20 21
+ 0.86644 3 6 cbr 210 ------- 2 1.0 5.0 25 26
- 0.86644 3 6 cbr 210 ------- 2 1.0 5.0 25 26
d 0.866444 4 6 cbr 210 ------- 2 1.0 5.0 25 26
r 0.86844 2 3 cbr 210 ------- 2 1.0 5.0 30 31
h 0.86844 3 6 cbr 210 ------- 2 1.0 5.0 30 31
+ 0.8696 1 2 cbr 210 ------- 2 1.0 5.0 44 45
- 0.8696 1 2 cbr 210 ------- 2 1.0 5.0 44 45
r 0.87204 1 2 cbr 210 ------- 2 1.0 5.0 43 44
+ 0.87204 2 3 cbr 210 ------- 2 1.0 5.0 43 44
- 0.87204 2 3 cbr 210 ------- 2 1.0 5.0 43 44
r 0.872844 6 5 cbr 210 ------- 2 1.0 5.0 21 22
+ 0.87484 3 6 cbr 210 ------- 2 1.0 5.0 26 27
- 0.87484 3 6 cbr 210 ------- 2 1.0 5.0 26 27
d 0.874844 4 6 cbr 210 ------- 2 1.0 5.0 26 27
r 0.87684 2 3 cbr 210 ------- 2 1.0 5.0 31 32
h 0.87684 3 6 cbr 210 ------- 2 1.0 5.0 31 32
+ 0.878 1 2 cbr 210 ------- 2 1.0 5.0 45 46
- 0.878 1 2 cbr 210 ------- 2 1.0 5.0 45 46
r 0.88044 1 2 cbr 210 ------- 2 1.0 5.0 44 45
+ 0.88044 2 3 cbr 210 ------- 2 1.0 5.0 44 45
- 0.88044 2 3 cbr 210 ------- 2 1.0 5.0 44 45
r 0.881244 6 5 cbr 210 ------- 2 1.0 5.0 22 23
+ 0.88324 3 6 cbr 210 ------- 2 1.0 5.0 27 28
- 0.88324 3 6 cbr 210 ------- 2 1.0 5.0 27 28
d 0.883244 4 6 cbr 210 ------- 2 1.0 5.0 27 28
r 0.88524 2 3 cbr 210 ------- 2 1.0 5.0 32 33
h 0.88524 3 6 cbr 210 ------- 2 1.0 5.0 32 33
+ 0.8864 1 2 cbr 210 ------- 2 1.0 5.0 46 47
- 0.8864 1 2 cbr 210 ------- 2 1.0 5.0 46 47
r 0.88884 1 2 cbr 210 ------- 2 1.0 5.0 45 46
+ 0.88884 2 3 cbr 210 ------- 2 1.0 5.0 45 46
- 0.88884 2 3 cbr 210 ------- 2 1.0 5.0 45 46
r 0.889644 6 5 cbr 210 ------- 2 1.0 5.0 23 24
+ 0.89164 3 6 cbr 210 ------- 2 1.0 5.0 28 29
- 0.89164 3 6 cbr 210 ------- 2 1.0 5.0 28 29
d 0.891644 4 6 cbr 210 ------- 2 1.0 5.0 28 29
r 0.89364 2 3 cbr 210 ------- 2 1.0 5.0 33 34
h 0.89364 3 6 cbr 210 ------- 2 1.0 5.0 33 34
+ 0.8948 1 2 cbr 210 ------- 2 1.0 5.0 47 48
- 0.8948 1 2 cbr 210 ------- 2 1.0 5.0 47 48
r 0.89724 1 2 cbr 210 ------- 2 1.0 5.0 46 47
+ 0.89724 2 3 cbr 210 ------- 2 1.0 5.0 46 47
- 0.89724 2 3 cbr 210 ------- 2 1.0 5.0 46 47
r 0.898044 6 5 cbr 210 ------- 2 1.0 5.0 24 25
+ 0.90004 3 6 cbr 210 ------- 2 1.0 5.0 29 30
- 0.90004 3 6 cbr 210 ------- 2 1.0 5.0 29 30
d 0.900044 4 6 cbr 210 ------- 2 1.0 5.0 29 30
r 0.90204 2 3 cbr 210 ------- 2 1.0 5.0 34 35
h 0.90204 3 6 cbr 210 ------- 2 1.0 5.0 34 35
+ 0.9032 1 2 cbr 210 ------- 2 1.0 5.0 48 49
- 0.9032 1 2 cbr 210 ------- 2 1.0 5.0 48 49
r 0.90564 1 2 cbr 210 ------- 2 1.0 5.0 47 48
+ 0.90564 2 3 cbr 210 ------- 2 1.0 5.0 47 48
- 0.90564 2 3 cbr 210 ------- 2 1.0 5.0 47 48
r 0.906444 6 5 cbr 210 ------- 2 1.0 5.0 25 26
+ 0.90844 3 6 cbr 210 ------- 2 1.0 5.0 30 31
- 0.90844 3 6 cbr 210 ------- 2 1.0 5.0 30 31
d 0.908444 4 6 cbr 210 ------- 2 1.0 5.0 30 31
r 0.91044 2 3 cbr 210 ------- 2 1.0 5.0 35 36
h 0.91044 3 6 cbr 210 ------- 2 1.0 5.0 35 36
+ 0.9116 1 2 cbr 210 ------- 2 1.0 5.0 49 50
- 0.9116 1 2 cbr 210 ------- 2 1.0 5.0 49 50
r 0.91404 1 2 cbr 210 ------- 2 1.0 5.0 48 49
+ 0.91404 2 3 cbr 210 ------- 2 1.0 5.0 48 49
- 0.91404 2 3 cbr 210 ------- 2 1.0 5.0 48 49
r 0.914844 6 5 cbr 210 ------- 2 1.0 5.0 26 27
+ 0.91684 3 6 cbr 210 ------- 2 1.0 5.0 31 32
- 0.91684 3 6 cbr 210 ------- 2 1.0 5.0 31 32
d 0.916844 4 6 cbr 210 ------- 2 1.0 5.0 31 32
r 0.91884 2 3 cbr 210 ------- 2 1.0 5.0 36 37
h 0.91884 3 6 cbr 210 ------- 2 1.0 5.0 36 37
+ 0.92 1 2 cbr 210 ------- 2 1.0 5.0 50 51
- 0.92 1 2 cbr 210 ------- 2 1.0 5.0 50 51
r 0.92244 1 2 cbr 210 ------- 2 1.0 5.0 49 50
+ 0.92244 2 3 cbr 210 ------- 2 1.0 5.0 49 50
- 0.92244 2 3 cbr 210 ------- 2 1.0 5.0 49 50
r 0.923244 6 5 cbr 210 ------- 2 1.0 5.0 27 28
+ 0.92524 3 6 cbr 210 ------- 2 1.0 5.0 32 33
- 0.92524 3 6 cbr 210 ------- 2 1.0 5.0 32 33
d 0.925244 4 6 cbr 210 ------- 2 1.0 5.0 32 33
r 0.92724 2 3 cbr 210 ------- 2 1.0 5.0 37 38
h 0.92724 3 6 cbr 210 ------- 2 1.0 5.0 37 38
+ 0.9284 1 2 cbr 210 ------- 2 1.0 5.0 51 52
- 0.9284 1 2 cbr 210 ------- 2 1.0 5.0 51 52
r 0.93084 1 2 cbr 210 ------- 2 1.0 5.0 50 51
+ 0.93084 2 3 cbr 210 ------- 2 1.0 5.0 50 51
- 0.93084 2 3 cbr 210 ------- 2 1.0 5.0 50 51
r 0.931644 6 5 cbr 210 ------- 2 1.0 5.0 28 29
+ 0.93364 3 6 cbr 210 ------- 2 1.0 5.0 33 34
- 0.93364 3 6 cbr 210 ------- 2 1.0 5.0 33 34
d 0.933644 4 6 cbr 210 ------- 2 1.0 5.0 33 34
r 0.93564 2 3 cbr 210 ------- 2 1.0 5.0 38 39
h 0.93564 3 6 cbr 210 ------- 2 1.0 5.0 38 39
+ 0.9368 1 2 cbr 210 ------- 2 1.0 5.0 52 53
- 0.9368 1 2 cbr 210 ------- 2 1.0 5.0 52 53
r 0.93924 1 2 cbr 210 ------- 2 1.0 5.0 51 52
+ 0.93924 2 3 cbr 210 ------- 2 1.0 5.0 51 52
- 0.93924 2 3 cbr 210 ------- 2 1.0 5.0 51 52
r 0.940044 6 5 cbr 210 ------- 2 1.0 5.0 29 30
+ 0.94204 3 6 cbr 210 ------- 2 1.0 5.0 34 35
- 0.94204 3 6 cbr 210 ------- 2 1.0 5.0 34 35
d 0.942044 4 6 cbr 210 ------- 2 1.0 5.0 34 35
r 0.94404 2 3 cbr 210 ------- 2 1.0 5.0 39 40
h 0.94404 3 6 cbr 210 ------- 2 1.0 5.0 39 40
+ 0.9452 1 2 cbr 210 ------- 2 1.0 5.0 53 54
- 0.9452 1 2 cbr 210 ------- 2 1.0 5.0 53 54
r 0.94764 1 2 cbr 210 ------- 2 1.0 5.0 52 53
+ 0.94764 2 3 cbr 210 ------- 2 1.0 5.0 52 53
- 0.94764 2 3 cbr 210 ------- 2 1.0 5.0 52 53
r 0.948444 6 5 cbr 210 ------- 2 1.0 5.0 30 31
+ 0.95044 3 6 cbr 210 ------- 2 1.0 5.0 35 36
- 0.95044 3 6 cbr 210 ------- 2 1.0 5.0 35 36
d 0.950444 4 6 cbr 210 ------- 2 1.0 5.0 35 36
+ 0.9536 1 2 cbr 210 ------- 2 1.0 5.0 54 55
- 0.9536 1 2 cbr 210 ------- 2 1.0 5.0 54 55
r 0.95604 1 2 cbr 210 ------- 2 1.0 5.0 53 54
d 0.95604 2 3 cbr 210 ------- 2 1.0 5.0 53 54
r 0.956844 6 5 cbr 210 ------- 2 1.0 5.0 31 32
+ 0.95884 3 6 cbr 210 ------- 2 1.0 5.0 36 37
- 0.95884 3 6 cbr 210 ------- 2 1.0 5.0 36 37
d 0.958844 4 6 cbr 210 ------- 2 1.0 5.0 36 37
+ 0.962 1 2 cbr 210 ------- 2 1.0 5.0 55 56
- 0.962 1 2 cbr 210 ------- 2 1.0 5.0 55 56
r 0.96444 1 2 cbr 210 ------- 2 1.0 5.0 54 55
+ 0.96444 2 3 cbr 210 ------- 2 1.0 5.0 54 55
- 0.96444 2 3 cbr 210 ------- 2 1.0 5.0 54 55
r 0.965244 6 5 cbr 210 ------- 2 1.0 5.0 32 33
+ 0.96724 3 6 cbr 210 ------- 2 1.0 5.0 37 38
- 0.96724 3 6 cbr 210 ------- 2 1.0 5.0 37 38
d 0.967244 4 6 cbr 210 ------- 2 1.0 5.0 37 38
r 0.96924 2 3 cbr 210 ------- 2 1.0 5.0 42 43
h 0.96924 3 6 cbr 210 ------- 2 1.0 5.0 42 43
+ 0.9704 1 2 cbr 210 ------- 2 1.0 5.0 56 57
- 0.9704 1 2 cbr 210 ------- 2 1.0 5.0 56 57
r 0.97284 1 2 cbr 210 ------- 2 1.0 5.0 55 56
+ 0.97284 2 3 cbr 210 ------- 2 1.0 5.0 55 56
- 0.97284 2 3 cbr 210 ------- 2 1.0 5.0 55 56
r 0.973644 6 5 cbr 210 ------- 2 1.0 5.0 33 34
+ 0.97564 3 6 cbr 210 ------- 2 1.0 5.0 38 39
- 0.97564 3 6 cbr 210 ------- 2 1.0 5.0 38 39
d 0.975644 4 6 cbr 210 ------- 2 1.0 5.0 38 39
r 0.97764 2 3 cbr 210 ------- 2 1.0 5.0 43 44
h 0.97764 3 6 cbr 210 ------- 2 1.0 5.0 43 44
+ 0.9788 1 2 cbr 210 ------- 2 1.0 5.0 57 58
- 0.9788 1 2 cbr 210 ------- 2 1.0 5.0 57 58
r 0.98124 1 2 cbr 210 ------- 2 1.0 5.0 56 57
+ 0.98124 2 3 cbr 210 ------- 2 1.0 5.0 56 57
- 0.98124 2 3 cbr 210 ------- 2 1.0 5.0 56 57
r 0.982044 6 5 cbr 210 ------- 2 1.0 5.0 34 35
+ 0.98404 3 6 cbr 210 ------- 2 1.0 5.0 39 40
- 0.98404 3 6 cbr 210 ------- 2 1.0 5.0 39 40
d 0.984044 4 6 cbr 210 ------- 2 1.0 5.0 39 40
r 0.98604 2 3 cbr 210 ------- 2 1.0 5.0 44 45
h 0.98604 3 6 cbr 210 ------- 2 1.0 5.0 44 45
+ 0.9872 1 2 cbr 210 ------- 2 1.0 5.0 58 59
- 0.9872 1 2 cbr 210 ------- 2 1.0 5.0 58 59
r 0.98964 1 2 cbr 210 ------- 2 1.0 5.0 57 58
+ 0.98964 2 3 cbr 210 ------- 2 1.0 5.0 57 58
- 0.98964 2 3 cbr 210 ------- 2 1.0 5.0 57 58
r 0.990444 6 5 cbr 210 ------- 2 1.0 5.0 35 36
r 0.99444 2 3 cbr 210 ------- 2 1.0 5.0 45 46
h 0.99444 3 6 cbr 210 ------- 2 1.0 5.0 45 46
+ 0.9956 1 2 cbr 210 ------- 2 1.0 5.0 59 60
- 0.9956 1 2 cbr 210 ------- 2 1.0 5.0 59 60
r 0.99804 1 2 cbr 210 ------- 2 1.0 5.0 58 59
+ 0.99804 2 3 cbr 210 ------- 2 1.0 5.0 58 59
- 0.99804 2 3 cbr 210 ------- 2 1.0 5.0 58 59
r 0.998844 6 5 cbr 210 ------- 2 1.0 5.0 36 37
r 1.00284 2 3 cbr 210 ------- 2 1.0 5.0 46 47
h 1.00284 3 6 cbr 210 ------- 2 1.0 5.0 46 47
+ 1.004 1 2 cbr 210 ------- 2 1.0 5.0 60 61
- 1.004 1 2 cbr 210 ------- 2 1.0 5.0 60 61
r 1.00644 1 2 cbr 210 ------- 2 1.0 5.0 59 60
+ 1.00644 2 3 cbr 210 ------- 2 1.0 5.0 59 60
- 1.00644 2 3 cbr 210 ------- 2 1.0 5.0 59 60
r 1.007244 6 5 cbr 210 ------- 2 1.0 5.0 37 38
+ 1.00924 3 6 cbr 210 ------- 2 1.0 5.0 42 43
- 1.00924 3 6 cbr 210 ------- 2 1.0 5.0 42 43
d 1.009244 4 6 cbr 210 ------- 2 1.0 5.0 42 43
r 1.01124 2 3 cbr 210 ------- 2 1.0 5.0 47 48
h 1.01124 3 6 cbr 210 ------- 2 1.0 5.0 47 48
+ 1.0124 1 2 cbr 210 ------- 2 1.0 5.0 61 62
- 1.0124 1 2 cbr 210 ------- 2 1.0 5.0 61 62
r 1.01484 1 2 cbr 210 ------- 2 1.0 5.0 60 61
+ 1.01484 2 3 cbr 210 ------- 2 1.0 5.0 60 61
- 1.01484 2 3 cbr 210 ------- 2 1.0 5.0 60 61
r 1.015644 6 5 cbr 210 ------- 2 1.0 5.0 38 39
+ 1.01764 3 6 cbr 210 ------- 2 1.0 5.0 43 44
- 1.01764 3 6 cbr 210 ------- 2 1.0 5.0 43 44
d 1.017644 4 6 cbr 210 ------- 2 1.0 5.0 43 44
r 1.01964 2 3 cbr 210 ------- 2 1.0 5.0 48 49
h 1.01964 3 6 cbr 210 ------- 2 1.0 5.0 48 49
+ 1.0208 1 2 cbr 210 ------- 2 1.0 5.0 62 63
- 1.0208 1 2 cbr 210 ------- 2 1.0 5.0 62 63
r 1.02324 1 2 cbr 210 ------- 2 1.0 5.0 61 62
+ 1.02324 2 3 cbr 210 ------- 2 1.0 5.0 61 62
- 1.02324 2 3 cbr 210 ------- 2 1.0 5.0 61 62
r 1.024044 6 5 cbr 210 ------- 2 1.0 5.0 39 40
+ 1.02604 3 6 cbr 210 ------- 2 1.0 5.0 44 45
- 1.02604 3 6 cbr 210 ------- 2 1.0 5.0 44 45
d 1.026044 4 6 cbr 210 ------- 2 1.0 5.0 44 45
r 1.02804 2 3 cbr 210 ------- 2 1.0 5.0 49 50
h 1.02804 3 6 cbr 210 ------- 2 1.0 5.0 49 50
+ 1.0292 1 2 cbr 210 ------- 2 1.0 5.0 63 64
- 1.0292 1 2 cbr 210 ------- 2 1.0 5.0 63 64
r 1.03164 1 2 cbr 210 ------- 2 1.0 5.0 62 63
+ 1.03164 2 3 cbr 210 ------- 2 1.0 5.0 62 63
- 1.03164 2 3 cbr 210 ------- 2 1.0 5.0 62 63
+ 1.03444 3 6 cbr 210 ------- 2 1.0 5.0 45 46
- 1.03444 3 6 cbr 210 ------- 2 1.0 5.0 45 46
d 1.034444 4 6 cbr 210 ------- 2 1.0 5.0 45 46
r 1.03644 2 3 cbr 210 ------- 2 1.0 5.0 50 51
h 1.03644 3 6 cbr 210 ------- 2 1.0 5.0 50 51
+ 1.0376 1 2 cbr 210 ------- 2 1.0 5.0 64 65
- 1.0376 1 2 cbr 210 ------- 2 1.0 5.0 64 65
r 1.04004 1 2 cbr 210 ------- 2 1.0 5.0 63 64
d 1.04004 2 3 cbr 210 ------- 2 1.0 5.0 63 64
+ 1.04284 3 6 cbr 210 ------- 2 1.0 5.0 46 47
- 1.04284 3 6 cbr 210 ------- 2 1.0 5.0 46 47
d 1.042844 4 6 cbr 210 ------- 2 1.0 5.0 46 47
r 1.04484 2 3 cbr 210 ------- 2 1.0 5.0 51 52
h 1.04484 3 6 cbr 210 ------- 2 1.0 5.0 51 52
+ 1.046 1 2 cbr 210 ------- 2 1.0 5.0 65 66
- 1.046 1 2 cbr 210 ------- 2 1.0 5.0 65 66
r 1.04844 1 2 cbr 210 ------- 2 1.0 5.0 64 65
+ 1.04844 2 3 cbr 210 ------- 2 1.0 5.0 64 65
- 1.04844 2 3 cbr 210 ------- 2 1.0 5.0 64 65
r 1.049244 6 5 cbr 210 ------- 2 1.0 5.0 42 43
+ 1.05124 3 6 cbr 210 ------- 2 1.0 5.0 47 48
- 1.05124 3 6 cbr 210 ------- 2 1.0 5.0 47 48
d 1.051244 4 6 cbr 210 ------- 2 1.0 5.0 47 48
r 1.05324 2 3 cbr 210 ------- 2 1.0 5.0 52 53
h 1.05324 3 6 cbr 210 ------- 2 1.0 5.0 52 53
+ 1.0544 1 2 cbr 210 ------- 2 1.0 5.0 66 67
- 1.0544 1 2 cbr 210 ------- 2 1.0 5.0 66 67
r 1.05684 1 2 cbr 210 ------- 2 1.0 5.0 65 66
d 1.05684 2 3 cbr 210 ------- 2 1.0 5.0 65 66
r 1.057644 6 5 cbr 210 ------- 2 1.0 5.0 43 44
+ 1.05964 3 6 cbr 210 ------- 2 1.0 5.0 48 49
- 1.05964 3 6 cbr 210 ------- 2 1.0 5.0 48 49
d 1.059644 4 6 cbr 210 ------- 2 1.0 5.0 48 49
+ 1.0628 1 2 cbr 210 ------- 2 1.0 5.0 67 68
- 1.0628 1 2 cbr 210 ------- 2 1.0 5.0 67 68
r 1.06524 1 2 cbr 210 ------- 2 1.0 5.0 66 67
+ 1.06524 2 3 cbr 210 ------- 2 1.0 5.0 66 67
- 1.06524 2 3 cbr 210 ------- 2 1.0 5.0 66 67
r 1.066044 6 5 cbr 210 ------- 2 1.0 5.0 44 45
+ 1.06804 3 6 cbr 210 ------- 2 1.0 5.0 49 50
- 1.06804 3 6 cbr 210 ------- 2 1.0 5.0 49 50
d 1.068044 4 6 cbr 210 ------- 2 1.0 5.0 49 50
r 1.07004 2 3 cbr 210 ------- 2 1.0 5.0 54 55
h 1.07004 3 6 cbr 210 ------- 2 1.0 5.0 54 55
+ 1.0712 1 2 cbr 210 ------- 2 1.0 5.0 68 69
- 1.0712 1 2 cbr 210 ------- 2 1.0 5.0 68 69
r 1.07364 1 2 cbr 210 ------- 2 1.0 5.0 67 68
+ 1.07364 2 3 cbr 210 ------- 2 1.0 5.0 67 68
- 1.07364 2 3 cbr 210 ------- 2 1.0 5.0 67 68
r 1.074444 6 5 cbr 210 ------- 2 1.0 5.0 45 46
+ 1.07644 3 6 cbr 210 ------- 2 1.0 5.0 50 51
- 1.07644 3 6 cbr 210 ------- 2 1.0 5.0 50 51
d 1.076444 4 6 cbr 210 ------- 2 1.0 5.0 50 51
r 1.07844 2 3 cbr 210 ------- 2 1.0 5.0 55 56
h 1.07844 3 6 cbr 210 ------- 2 1.0 5.0 55 56
+ 1.0796 1 2 cbr 210 ------- 2 1.0 5.0 69 70
- 1.0796 1 2 cbr 210 ------- 2 1.0 5.0 69 70
r 1.08204 1 2 cbr 210 ------- 2 1.0 5.0 68 69
+ 1.08204 2 3 cbr 210 ------- 2 1.0 5.0 68 69
- 1.08204 2 3 cbr 210 ------- 2 1.0 5.0 68 69
r 1.082844 6 5 cbr 210 ------- 2 1.0 5.0 46 47
+ 1.08484 3 6 cbr 210 ------- 2 1.0 5.0 51 52
- 1.08484 3 6 cbr 210 ------- 2 1.0 5.0 51 52
d 1.084844 4 6 cbr 210 ------- 2 1.0 5.0 51 52
r 1.08684 2 3 cbr 210 ------- 2 1.0 5.0 56 57
h 1.08684 3 6 cbr 210 ------- 2 1.0 5.0 56 57
+ 1.088 1 2 cbr 210 ------- 2 1.0 5.0 70 71
- 1.088 1 2 cbr 210 ------- 2 1.0 5.0 70 71
r 1.09044 1 2 cbr 210 ------- 2 1.0 5.0 69 70
+ 1.09044 2 3 cbr 210 ------- 2 1.0 5.0 69 70
- 1.09044 2 3 cbr 210 ------- 2 1.0 5.0 69 70
r 1.091244 6 5 cbr 210 ------- 2 1.0 5.0 47 48
+ 1.09324 3 6 cbr 210 ------- 2 1.0 5.0 52 53
- 1.09324 3 6 cbr 210 ------- 2 1.0 5.0 52 53
d 1.093244 4 6 cbr 210 ------- 2 1.0 5.0 52 53
r 1.09524 2 3 cbr 210 ------- 2 1.0 5.0 57 58
h 1.09524 3 6 cbr 210 ------- 2 1.0 5.0 57 58
+ 1.0964 1 2 cbr 210 ------- 2 1.0 5.0 71 72
- 1.0964 1 2 cbr 210 ------- 2 1.0 5.0 71 72
r 1.09884 1 2 cbr 210 ------- 2 1.0 5.0 70 71
d 1.09884 2 3 cbr 210 ------- 2 1.0 5.0 70 71
r 1.099644 6 5 cbr 210 ------- 2 1.0 5.0 48 49
r 1.10364 2 3 cbr 210 ------- 2 1.0 5.0 58 59
h 1.10364 3 6 cbr 210 ------- 2 1.0 5.0 58 59
+ 1.1048 1 2 cbr 210 ------- 2 1.0 5.0 72 73
- 1.1048 1 2 cbr 210 ------- 2 1.0 5.0 72 73
r 1.10724 1 2 cbr 210 ------- 2 1.0 5.0 71 72
+ 1.10724 2 3 cbr 210 ------- 2 1.0 5.0 71 72
- 1.10724 2 3 cbr 210 ------- 2 1.0 5.0 71 72
r 1.108044 6 5 cbr 210 ------- 2 1.0 5.0 49 50
+ 1.11004 3 6 cbr 210 ------- 2 1.0 5.0 54 55
- 1.11004 3 6 cbr 210 ------- 2 1.0 5.0 54 55
d 1.110044 4 6 cbr 210 ------- 2 1.0 5.0 54 55
r 1.11204 2 3 cbr 210 ------- 2 1.0 5.0 59 60
h 1.11204 3 6 cbr 210 ------- 2 1.0 5.0 59 60
+ 1.1132 1 2 cbr 210 ------- 2 1.0 5.0 73 74