V -t * -v 1.0a5 -a 0
A -t * -n 1 -p 0 -o 0x7fffffff -c 30 -a 1
A -t * -h 1 -m 1073741823 -s 0
n -t * -a 0 -s 0 -S UP -v circle -c black -i black
n -t * -a 1 -s 1 -S UP -v circle -c black -i black
n -t * -a 2 -s 2 -S UP -v circle -c black -i black
n -t * -a 3 -s 3 -S UP -v circle -c black -i black
l -t * -s 0 -d 1 -S UP -r 2000000 -D 0.01 -c black
l -t * -s 2 -d 1 -S UP -r 2000000 -D 0.01 -c black
l -t * -s 1 -d 3 -S UP -r 900000 -D 0.01 -c black
+ -t 0.707790344 -s 0 -d 1 -p tcp -e 40 -c 0 -i 0 -a 0 -x {0.0 3.0 0 ------- null}
- -t 0.707790344 -s 0 -d 1 -p tcp -e 40 -c 0 -i 0 -a 0 -x {0.0 3.0 0 ------- null}
h -t 0.707790344 -s 0 -d 1 -p tcp -e 40 -c 0 -i 0 -a 0 -x {0.0 3.0 -1 ------- null}
r -t 0.717950344 -s 0 -d 1 -p tcp -e 40 -c 0 -i 0 -a 0 -x {0.0 3.0 0 ------- null}
+ -t 0.717950344 -s 1 -d 3 -p tcp -e 40 -c 0 -i 0 -a 0 -x {0.0 3.0 0 ------- null}
- -t 0.717950344 -s 1 -d 3 -p tcp -e 40 -c 0 -i 0 -a 0 -x {0.0 3.0 0 ------- null}
h -t 0.717950344 -s 1 -d 3 -p tcp -e 40 -c 0 -i 0 -a 0 -x {0.0 3.0 -1 ------- null}
r -t 0.728305899555555 -s 1 -d 3 -p tcp -e 40 -c 0 -i 0 -a 0 -x {0.0 3.0 0 ------- null}
+ -t 0.728305899555555 -s 3 -d 1 -p ack -e 40 -c 0 -i 1 -a 0 -x {3.0 0.0 0 ------- null}
- -t 0.728305899555555 -s 3 -d 1 -p ack -e 40 -c 0 -i 1 -a 0 -x {3.0 0.0 0 ------- null}
h -t 0.728305899555555 -s 3 -d 1 -p ack -e 40 -c 0 -i 1 -a 0 -x {3.0 0.0 -1 ------- null}
r -t 0.738661455111111 -s 3 -d 1 -p ack -e 40 -c 0 -i 1 -a 0 -x {3.0 0.0 0 ------- null}
+ -t 0.738661455111111 -s 1 -d 0 -p ack -e 40 -c 0 -i 1 -a 0 -x {3.0 0.0 0 ------- null}
- -t 0.738661455111111 -s 1 -d 0 -p ack -e 40 -c 0 -i 1 -a 0 -x {3.0 0.0 0 ------- null}
h -t 0.738661455111111 -s 1 -d 0 -p ack -e 40 -c 0 -i 1 -a 0 -x {3.0 0.0 -1 ------- null}
r -t 0.748821455111111 -s 1 -d 0 -p ack -e 40 -c 0 -i 1 -a 0 -x {3.0 0.0 0 ------- null}
+ -t 0.748821455111111 -s 0 -d 1 -p tcp -e 1040 -c 0 -i 2 -a 0 -x {0.0 3.0 1 ------- null}
- -t 0.748821455111111 -s 0 -d 1 -p tcp -e 1040 -c 0 -i 2 -a 0 -x {0.0 3.0 1 ------- null}
h -t 0.748821455111111 -s 0 -d 1 -p tcp -e 1040 -c 0 -i 2 -a 0 -x {0.0 3.0 -1 ------- null}
r -t 0.762981455111111 -s 0 -d 1 -p tcp -e 1040 -c 0 -i 2 -a 0 -x {0.0 3.0 1 ------- null}
+ -t 0.762981455111111 -s 1 -d 3 -p tcp -e 1040 -c 0 -i 2 -a 0 -x {0.0 3.0 1 ------- null}
- -t 0.762981455111111 -s 1 -d 3 -p tcp -e 1040 -c 0 -i 2 -a 0 -x {0.0 3.0 1 ------- null}
h -t 0.762981455111111 -s 1 -d 3 -p tcp -e 1040 -c 0 -i 2 -a 0 -x {0.0 3.0 -1 ------- null}
r -t 0.782225899555555 -s 1 -d 3 -p tcp -e 1040 -c 0 -i 2 -a 0 -x {0.0 3.0 1 ------- null}
+ -t 0.782225899555555 -s 3 -d 1 -p ack -e 40 -c 0 -i 3 -a 0 -x {3.0 0.0 1 ------- null}
- -t 0.782225899555555 -s 3 -d 1 -p ack -e 40 -c 0 -i 3 -a 0 -x {3.0 0.0 1 ------- null}
h -t 0.782225899555555 -s 3 -d 1 -p ack -e 40 -c 0 -i 3 -a 0 -x {3.0 0.0 -1 ------- null}
r -t 0.792581455111111 -s 3 -d 1 -p ack -e 40 -c 0 -i 3 -a 0 -x {3.0 0.0 1 ------- null}
+ -t 0.792581455111111 -s 1 -d 0 -p ack -e 40 -c 0 -i 3 -a 0 -x {3.0 0.0 1 ------- null}
- -t 0.792581455111111 -s 1 -d 0 -p ack -e 40 -c 0 -i 3 -a 0 -x {3.0 0.0 1 ------- null}
h -t 0.792581455111111 -s 1 -d 0 -p ack -e 40 -c 0 -i 3 -a 0 -x {3.0 0.0 -1 ------- null}
r -t 0.802741455111111 -s 1 -d 0 -p ack -e 40 -c 0 -i 3 -a 0 -x {3.0 0.0 1 ------- null}
+ -t 1.431390747 -s 0 -d 1 -p tcp -e 1040 -c 0 -i 4 -a 0 -x {0.0 3.0 2 ---A--- null}
- -t 1.431390747 -s 0 -d 1 -p tcp -e 1040 -c 0 -i 4 -a 0 -x {0.0 3.0 2 ---A--- null}
h -t 1.431390747 -s 0 -d 1 -p tcp -e 1040 -c 0 -i 4 -a 0 -x {0.0 3.0 -1 ---A--- null}
r -t 1.445550747 -s 0 -d 1 -p tcp -e 1040 -c 0 -i 4 -a 0 -x {0.0 3.0 2 ---A--- null}
+ -t 1.445550747 -s 1 -d 3 -p tcp -e 1040 -c 0 -i 4 -a 0 -x {0.0 3.0 2 ---A--- null}
- -t 1.445550747 -s 1 -d 3 -p tcp -e 1040 -c 0 -i 4 -a 0 -x {0.0 3.0 2 ---A--- null}
h -t 1.445550747 -s 1 -d 3 -p tcp -e 1040 -c 0 -i 4 -a 0 -x {0.0 3.0 -1 ---A--- null}
r -t 1.46479519144444 -s 1 -d 3 -p tcp -e 1040 -c 0 -i 4 -a 0 -x {0.0 3.0 2 ---A--- null}
+ -t 1.46479519144444 -s 3 -d 1 -p ack -e 40 -c 0 -i 5 -a 0 -x {3.0 0.0 2 ------- null}
- -t 1.46479519144444 -s 3 -d 1 -p ack -e 40 -c 0 -i 5 -a 0 -x {3.0 0.0 2 ------- null}
h -t 1.46479519144444 -s 3 -d 1 -p ack -e 40 -c 0 -i 5 -a 0 -x {3.0 0.0 -1 ------- null}
r -t 1.475150747 -s 3 -d 1 -p ack -e 40 -c 0 -i 5 -a 0 -x {3.0 0.0 2 ------- null}
+ -t 1.475150747 -s 1 -d 0 -p ack -e 40 -c 0 -i 5 -a 0 -x {3.0 0.0 2 ------- null}
- -t 1.475150747 -s 1 -d 0 -p ack -e 40 -c 0 -i 5 -a 0 -x {3.0 0.0 2 ------- null}
h -t 1.475150747 -s 1 -d 0 -p ack -e 40 -c 0 -i 5 -a 0 -x {3.0 0.0 -1 ------- null}
r -t 1.485310747 -s 1 -d 0 -p ack -e 40 -c 0 -i 5 -a 0 -x {3.0 0.0 2 ------- null}
+ -t 1.59171315 -s 0 -d 1 -p tcp -e 1040 -c 0 -i 6 -a 0 -x {0.0 3.0 3 ------- null}
- -t 1.59171315 -s 0 -d 1 -p tcp -e 1040 -c 0 -i 6 -a 0 -x {0.0 3.0 3 ------- null}
h -t 1.59171315 -s 0 -d 1 -p tcp -e 1040 -c 0 -i 6 -a 0 -x {0.0 3.0 -1 ------- null}
r -t 1.60587315 -s 0 -d 1 -p tcp -e 1040 -c 0 -i 6 -a 0 -x {0.0 3.0 3 ------- null}
+ -t 1.60587315 -s 1 -d 3 -p tcp -e 1040 -c 0 -i 6 -a 0 -x {0.0 3.0 3 ------- null}
- -t 1.60587315 -s 1 -d 3 -p tcp -e 1040 -c 0 -i 6 -a 0 -x {0.0 3.0 3 ------- null}
h -t 1.60587315 -s 1 -d 3 -p tcp -e 1040 -c 0 -i 6 -a 0 -x {0.0 3.0 -1 ------- null}
r -t 1.62511759444444 -s 1 -d 3 -p tcp -e 1040 -c 0 -i 6 -a 0 -x {0.0 3.0 3 ------- null}
+ -t 1.62511759444444 -s 3 -d 1 -p ack -e 40 -c 0 -i 7 -a 0 -x {3.0 0.0 3 ------- null}
- -t 1.62511759444444 -s 3 -d 1 -p ack -e 40 -c 0 -i 7 -a 0 -x {3.0 0.0 3 ------- null}
h -t 1.62511759444444 -s 3 -d 1 -p ack -e 40 -c 0 -i 7 -a 0 -x {3.0 0.0 -1 ------- null}
r -t 1.63547315 -s 3 -d 1 -p ack -e 40 -c 0 -i 7 -a 0 -x {3.0 0.0 3 ------- null}
+ -t 1.63547315 -s 1 -d 0 -p ack -e 40 -c 0 -i 7 -a 0 -x {3.0 0.0 3 ------- null}
- -t 1.63547315 -s 1 -d 0 -p ack -e 40 -c 0 -i 7 -a 0 -x {3.0 0.0 3 ------- null}
h -t 1.63547315 -s 1 -d 0 -p ack -e 40 -c 0 -i 7 -a 0 -x {3.0 0.0 -1 ------- null}
r -t 1.64563315 -s 1 -d 0 -p ack -e 40 -c 0 -i 7 -a 0 -x {3.0 0.0 3 ------- null}
+ -t 2 -s 2 -d 1 -p tcp -e 40 -c 0 -i 8 -a 0 -x {2.0 3.1 0 ------- null}
- -t 2 -s 2 -d 1 -p tcp -e 40 -c 0 -i 8 -a 0 -x {2.0 3.1 0 ------- null}
h -t 2 -s 2 -d 1 -p tcp -e 40 -c 0 -i 8 -a 0 -x {2.0 3.1 -1 ------- null}
r -t 2.01016 -s 2 -d 1 -p tcp -e 40 -c 0 -i 8 -a 0 -x {2.0 3.1 0 ------- null}
+ -t 2.01016 -s 1 -d 3 -p tcp -e 40 -c 0 -i 8 -a 0 -x {2.0 3.1 0 ------- null}
- -t 2.01016 -s 1 -d 3 -p tcp -e 40 -c 0 -i 8 -a 0 -x {2.0 3.1 0 ------- null}
h -t 2.01016 -s 1 -d 3 -p tcp -e 40 -c 0 -i 8 -a 0 -x {2.0 3.1 -1 ------- null}
r -t 2.02051555555556 -s 1 -d 3 -p tcp -e 40 -c 0 -i 8 -a 0 -x {2.0 3.1 0 ------- null}
+ -t 2.02051555555556 -s 3 -d 1 -p ack -e 40 -c 0 -i 9 -a 0 -x {3.1 2.0 0 ------- null}
- -t 2.02051555555556 -s 3 -d 1 -p ack -e 40 -c 0 -i 9 -a 0 -x {3.1 2.0 0 ------- null}
h -t 2.02051555555556 -s 3 -d 1 -p ack -e 40 -c 0 -i 9 -a 0 -x {3.1 2.0 -1 ------- null}
r -t 2.03087111111111 -s 3 -d 1 -p ack -e 40 -c 0 -i 9 -a 0 -x {3.1 2.0 0 ------- null}
+ -t 2.03087111111111 -s 1 -d 2 -p ack -e 40 -c 0 -i 9 -a 0 -x {3.1 2.0 0 ------- null}
- -t 2.03087111111111 -s 1 -d 2 -p ack -e 40 -c 0 -i 9 -a 0 -x {3.1 2.0 0 ------- null}
h -t 2.03087111111111 -s 1 -d 2 -p ack -e 40 -c 0 -i 9 -a 0 -x {3.1 2.0 -1 ------- null}
r -t 2.04103111111111 -s 1 -d 2 -p ack -e 40 -c 0 -i 9 -a 0 -x {3.1 2.0 0 ------- null}
+ -t 2.04103111111111 -s 2 -d 1 -p tcp -e 1040 -c 0 -i 10 -a 0 -x {2.0 3.1 1 ------- null}
- -t 2.04103111111111 -s 2 -d 1 -p tcp -e 1040 -c 0 -i 10 -a 0 -x {2.0 3.1 1 ------- null}
h -t 2.04103111111111 -s 2 -d 1 -p tcp -e 1040 -c 0 -i 10 -a 0 -x {2.0 3.1 -1 ------- null}
+ -t 2.04103111111111 -s 2 -d 1 -p tcp -e 1040 -c 0 -i 11 -a 0 -x {2.0 3.1 2 ------- null}
- -t 2.04519111111111 -s 2 -d 1 -p tcp -e 1040 -c 0 -i 11 -a 0 -x {2.0 3.1 2 ------- null}
h -t 2.04519111111111 -s 2 -d 1 -p tcp -e 1040 -c 0 -i 11 -a 0 -x {2.0 3.1 -1 ------- null}
r -t 2.05519111111111 -s 2 -d 1 -p tcp -e 1040 -c 0 -i 10 -a 0 -x {2.0 3.1 1 ------- null}
+ -t 2.05519111111111 -s 1 -d 3 -p tcp -e 1040 -c 0 -i 10 -a 0 -x {2.0 3.1 1 ------- null}
- -t 2.05519111111111 -s 1 -d 3 -p tcp -e 1040 -c 0 -i 10 -a 0 -x {2.0 3.1 1 ------- null}
h -t 2.05519111111111 -s 1 -d 3 -p tcp -e 1040 -c 0 -i 10 -a 0 -x {2.0 3.1 -1 ------- null}
r -t 2.05935111111111 -s 2 -d 1 -p tcp -e 1040 -c 0 -i 11 -a 0 -x {2.0 3.1 2 ------- null}
+ -t 2.05935111111111 -s 1 -d 3 -p tcp -e 1040 -c 0 -i 11 -a 0 -x {2.0 3.1 2 ------- null}
- -t 2.06443555555556 -s 1 -d 3 -p tcp -e 1040 -c 0 -i 11 -a 0 -x {2.0 3.1 2 ------- null}
h -t 2.06443555555556 -s 1 -d 3 -p tcp -e 1040 -c 0 -i 11 -a 0 -x {2.0 3.1 -1 ------- null}
r -t 2.07443555555556 -s 1 -d 3 -p tcp -e 1040 -c 0 -i 10 -a 0 -x {2.0 3.1 1 ------- null}
+ -t 2.07443555555556 -s 3 -d 1 -p ack -e 40 -c 0 -i 12 -a 0 -x {3.1 2.0 1 ------- null}
- -t 2.07443555555556 -s 3 -d 1 -p ack -e 40 -c 0 -i 12 -a 0 -x {3.1 2.0 1 ------- null}
h -t 2.07443555555556 -s 3 -d 1 -p ack -e 40 -c 0 -i 12 -a 0 -x {3.1 2.0 -1 ------- null}
r -t 2.08368 -s 1 -d 3 -p tcp -e 1040 -c 0 -i 11 -a 0 -x {2.0 3.1 2 ------- null}
+ -t 2.08368 -s 3 -d 1 -p ack -e 40 -c 0 -i 13 -a 0 -x {3.1 2.0 2 ------- null}
- -t 2.08368 -s 3 -d 1 -p ack -e 40 -c 0 -i 13 -a 0 -x {3.1 2.0 2 ------- null}
h -t 2.08368 -s 3 -d 1 -p ack -e 40 -c 0 -i 13 -a 0 -x {3.1 2.0 -1 ------- null}
r -t 2.08479111111111 -s 3 -d 1 -p ack -e 40 -c 0 -i 12 -a 0 -x {3.1 2.0 1 ------- null}
+ -t 2.08479111111111 -s 1 -d 2 -p ack -e 40 -c 0 -i 12 -a 0 -x {3.1 2.0 1 ------- null}
- -t 2.08479111111111 -s 1 -d 2 -p ack -e 40 -c 0 -i 12 -a 0 -x {3.1 2.0 1 ------- null}
h -t 2.08479111111111 -s 1 -d 2 -p ack -e 40 -c 0 -i 12 -a 0 -x {3.1 2.0 -1 ------- null}
r -t 2.09403555555556 -s 3 -d 1 -p ack -e 40 -c 0 -i 13 -a 0 -x {3.1 2.0 2 ------- null}
+ -t 2.09403555555556 -s 1 -d 2 -p ack -e 40 -c 0 -i 13 -a 0 -x {3.1 2.0 2 ------- null}
- -t 2.09403555555556 -s 1 -d 2 -p ack -e 40 -c 0 -i 13 -a 0 -x {3.1 2.0 2 ------- null}
h -t 2.09403555555556 -s 1 -d 2 -p ack -e 40 -c 0 -i 13 -a 0 -x {3.1 2.0 -1 ------- null}
r -t 2.09495111111111 -s 1 -d 2 -p ack -e 40 -c 0 -i 12 -a 0 -x {3.1 2.0 1 ------- null}
+ -t 2.09495111111111 -s 2 -d 1 -p tcp -e 1040 -c 0 -i 14 -a 0 -x {2.0 3.1 3 ------- null}
- -t 2.09495111111111 -s 2 -d 1 -p tcp -e 1040 -c 0 -i 14 -a 0 -x {2.0 3.1 3 ------- null}
h -t 2.09495111111111 -s 2 -d 1 -p tcp -e 1040 -c 0 -i 14 -a 0 -x {2.0 3.1 -1 ------- null}
+ -t 2.09495111111111 -s 2 -d 1 -p tcp -e 1040 -c 0 -i 15 -a 0 -x {2.0 3.1 4 ------- null}
- -t 2.09911111111111 -s 2 -d 1 -p tcp -e 1040 -c 0 -i 15 -a 0 -x {2.0 3.1 4 ------- null}
h -t 2.09911111111111 -s 2 -d 1 -p tcp -e 1040 -c 0 -i 15 -a 0 -x {2.0 3.1 -1 ------- null}
r -t 2.10419555555556 -s 1 -d 2 -p ack -e 40 -c 0 -i 13 -a 0 -x {3.1 2.0 2 ------- null}
+ -t 2.10419555555556 -s 2 -d 1 -p tcp -e 1040 -c 0 -i 16 -a 0 -x {2.0 3.1 5 ------- null}
- -t 2.10419555555556 -s 2 -d 1 -p tcp -e 1040 -c 0 -i 16 -a 0 -x {2.0 3.1 5 ------- null}
h -t 2.10419555555556 -s 2 -d 1 -p tcp -e 1040 -c 0 -i 16 -a 0 -x {2.0 3.1 -1 ------- null}
+ -t 2.10419555555556 -s 2 -d 1 -p tcp -e 1040 -c 0 -i 17 -a 0 -x {2.0 3.1 6 ------- null}
- -t 2.10835555555556 -s 2 -d 1 -p tcp -e 1040 -c 0 -i 17 -a 0 -x {2.0 3.1 6 ------- null}
h -t 2.10835555555556 -s 2 -d 1 -p tcp -e 1040 -c 0 -i 17 -a 0 -x {2.0 3.1 -1 ------- null}
r -t 2.10911111111111 -s 2 -d 1 -p tcp -e 1040 -c 0 -i 14 -a 0 -x {2.0 3.1 3 ------- null}
+ -t 2.10911111111111 -s 1 -d 3 -p tcp -e 1040 -c 0 -i 14 -a 0 -x {2.0 3.1 3 ------- null}
- -t 2.10911111111111 -s 1 -d 3 -p tcp -e 1040 -c 0 -i 14 -a 0 -x {2.0 3.1 3 ------- null}
h -t 2.10911111111111 -s 1 -d 3 -p tcp -e 1040 -c 0 -i 14 -a 0 -x {2.0 3.1 -1 ------- null}
r -t 2.11327111111111 -s 2 -d 1 -p tcp -e 1040 -c 0 -i 15 -a 0 -x {2.0 3.1 4 ------- null}
+ -t 2.11327111111111 -s 1 -d 3 -p tcp -e 1040 -c 0 -i 15 -a 0 -x {2.0 3.1 4 ------- null}
r -t 2.11835555555556 -s 2 -d 1 -p tcp -e 1040 -c 0 -i 16 -a 0 -x {2.0 3.1 5 ------- null}
+ -t 2.11835555555556 -s 1 -d 3 -p tcp -e 1040 -c 0 -i 16 -a 0 -x {2.0 3.1 5 ------- null}
- -t 2.11835555555556 -s 1 -d 3 -p tcp -e 1040 -c 0 -i 15 -a 0 -x {2.0 3.1 4 ------- null}
h -t 2.11835555555556 -s 1 -d 3 -p tcp -e 1040 -c 0 -i 15 -a 0 -x {2.0 3.1 -1 ------- null}
r -t 2.12251555555556 -s 2 -d 1 -p tcp -e 1040 -c 0 -i 17 -a 0 -x {2.0 3.1 6 ------- null}
+ -t 2.12251555555556 -s 1 -d 3 -p tcp -e 1040 -c 0 -i 17 -a 0 -x {2.0 3.1 6 ------- null}
- -t 2.1276 -s 1 -d 3 -p tcp -e 1040 -c 0 -i 16 -a 0 -x {2.0 3.1 5 ------- null}
h -t 2.1276 -s 1 -d 3 -p tcp -e 1040 -c 0 -i 16 -a 0 -x {2.0 3.1 -1 ------- null}
r -t 2.12835555555555 -s 1 -d 3 -p tcp -e 1040 -c 0 -i 14 -a 0 -x {2.0 3.1 3 ------- null}
+ -t 2.12835555555555 -s 3 -d 1 -p ack -e 40 -c 0 -i 18 -a 0 -x {3.1 2.0 3 ------- null}
- -t 2.12835555555555 -s 3 -d 1 -p ack -e 40 -c 0 -i 18 -a 0 -x {3.1 2.0 3 ------- null}
h -t 2.12835555555555 -s 3 -d 1 -p ack -e 40 -c 0 -i 18 -a 0 -x {3.1 2.0 -1 ------- null}
- -t 2.13684444444444 -s 1 -d 3 -p tcp -e 1040 -c 0 -i 17 -a 0 -x {2.0 3.1 6 ------- null}
h -t 2.13684444444444 -s 1 -d 3 -p tcp -e 1040 -c 0 -i 17 -a 0 -x {2.0 3.1 -1 ------- null}
r -t 2.1376 -s 1 -d 3 -p tcp -e 1040 -c 0 -i 15 -a 0 -x {2.0 3.1 4 ------- null}
+ -t 2.1376 -s 3 -d 1 -p ack -e 40 -c 0 -i 19 -a 0 -x {3.1 2.0 4 ------- null}
- -t 2.1376 -s 3 -d 1 -p ack -e 40 -c 0 -i 19 -a 0 -x {3.1 2.0 4 ------- null}
h -t 2.1376 -s 3 -d 1 -p ack -e 40 -c 0 -i 19 -a 0 -x {3.1 2.0 -1 ------- null}
r -t 2.13871111111111 -s 3 -d 1 -p ack -e 40 -c 0 -i 18 -a 0 -x {3.1 2.0 3 ------- null}
+ -t 2.13871111111111 -s 1 -d 2 -p ack -e 40 -c 0 -i 18 -a 0 -x {3.1 2.0 3 ------- null}
- -t 2.13871111111111 -s 1 -d 2 -p ack -e 40 -c 0 -i 18 -a 0 -x {3.1 2.0 3 ------- null}
h -t 2.13871111111111 -s 1 -d 2 -p ack -e 40 -c 0 -i 18 -a 0 -x {3.1 2.0 -1 ------- null}
r -t 2.14684444444444 -s 1 -d 3 -p tcp -e 1040 -c 0 -i 16 -a 0 -x {2.0 3.1 5 ------- null}
+ -t 2.14684444444444 -s 3 -d 1 -p ack -e 40 -c 0 -i 20 -a 0 -x {3.1 2.0 5 ------- null}
- -t 2.14684444444444 -s 3 -d 1 -p ack -e 40 -c 0 -i 20 -a 0 -x {3.1 2.0 5 ------- null}
h -t 2.14684444444444 -s 3 -d 1 -p ack -e 40 -c 0 -i 20 -a 0 -x {3.1 2.0 -1 ------- null}
r -t 2.14795555555555 -s 3 -d 1 -p ack -e 40 -c 0 -i 19 -a 0 -x {3.1 2.0 4 ------- null}
+ -t 2.14795555555555 -s 1 -d 2 -p ack -e 40 -c 0 -i 19 -a 0 -x {3.1 2.0 4 ------- null}
- -t 2.14795555555555 -s 1 -d 2 -p ack -e 40 -c 0 -i 19 -a 0 -x {3.1 2.0 4 ------- null}
h -t 2.14795555555555 -s 1 -d 2 -p ack -e 40 -c 0 -i 19 -a 0 -x {3.1 2.0 -1 ------- null}
r -t 2.14887111111111 -s 1 -d 2 -p ack -e 40 -c 0 -i 18 -a 0 -x {3.1 2.0 3 ------- null}
+ -t 2.14887111111111 -s 2 -d 1 -p tcp -e 1040 -c 0 -i 21 -a 0 -x {2.0 3.1 7 ------- null}
- -t 2.14887111111111 -s 2 -d 1 -p tcp -e 1040 -c 0 -i 21 -a 0 -x {2.0 3.1 7 ------- null}
h -t 2.14887111111111 -s 2 -d 1 -p tcp -e 1040 -c 0 -i 21 -a 0 -x {2.0 3.1 -1 ------- null}
+ -t 2.14887111111111 -s 2 -d 1 -p tcp -e 1040 -c 0 -i 22 -a 0 -x {2.0 3.1 8 ------- null}
- -t 2.15303111111111 -s 2 -d 1 -p tcp -e 1040 -c 0 -i 22 -a 0 -x {2.0 3.1 8 ------- null}
h -t 2.15303111111111 -s 2 -d 1 -p tcp -e 1040 -c 0 -i 22 -a 0 -x {2.0 3.1 -1 ------- null}
r -t 2.15608888888889 -s 1 -d 3 -p tcp -e 1040 -c 0 -i 17 -a 0 -x {2.0 3.1 6 ------- null}
+ -t 2.15608888888889 -s 3 -d 1 -p ack -e 40 -c 0 -i 23 -a 0 -x {3.1 2.0 6 ------- null}
- -t 2.15608888888889 -s 3 -d 1 -p ack -e 40 -c 0 -i 23 -a 0 -x {3.1 2.0 6 ------- null}
h -t 2.15608888888889 -s 3 -d 1 -p ack -e 40 -c 0 -i 23 -a 0 -x {3.1 2.0 -1 ------- null}
r -t 2.1572 -s 3 -d 1 -p ack -e 40 -c 0 -i 20 -a 0 -x {3.1 2.0 5 ------- null}
+ -t 2.1572 -s 1 -d 2 -p ack -e 40 -c 0 -i 20 -a 0 -x {3.1 2.0 5 ------- null}
- -t 2.1572 -s 1 -d 2 -p ack -e 40 -c 0 -i 20 -a 0 -x {3.1 2.0 5 ------- null}
h -t 2.1572 -s 1 -d 2 -p ack -e 40 -c 0 -i 20 -a 0 -x {3.1 2.0 -1 ------- null}
r -t 2.15811555555555 -s 1 -d 2 -p ack -e 40 -c 0 -i 19 -a 0 -x {3.1 2.0 4 ------- null}
+ -t 2.15811555555555 -s 2 -d 1 -p tcp -e 1040 -c 0 -i 24 -a 0 -x {2.0 3.1 9 ------- null}
- -t 2.15811555555555 -s 2 -d 1 -p tcp -e 1040 -c 0 -i 24 -a 0 -x {2.0 3.1 9 ------- null}
h -t 2.15811555555555 -s 2 -d 1 -p tcp -e 1040 -c 0 -i 24 -a 0 -x {2.0 3.1 -1 ------- null}
+ -t 2.15811555555555 -s 2 -d 1 -p tcp -e 1040 -c 0 -i 25 -a 0 -x {2.0 3.1 10 ------- null}
- -t 2.16227555555556 -s 2 -d 1 -p tcp -e 1040 -c 0 -i 25 -a 0 -x {2.0 3.1 10 ------- null}
h -t 2.16227555555556 -s 2 -d 1 -p tcp -e 1040 -c 0 -i 25 -a 0 -x {2.0 3.1 -1 ------- null}
r -t 2.16303111111111 -s 2 -d 1 -p tcp -e 1040 -c 0 -i 21 -a 0 -x {2.0 3.1 7 ------- null}
+ -t 2.16303111111111 -s 1 -d 3 -p tcp -e 1040 -c 0 -i 21 -a 0 -x {2.0 3.1 7 ------- null}
- -t 2.16303111111111 -s 1 -d 3 -p tcp -e 1040 -c 0 -i 21 -a 0 -x {2.0 3.1 7 ------- null}
h -t 2.16303111111111 -s 1 -d 3 -p tcp -e 1040 -c 0 -i 21 -a 0 -x {2.0 3.1 -1 ------- null}
r -t 2.16644444444444 -s 3 -d 1 -p ack -e 40 -c 0 -i 23 -a 0 -x {3.1 2.0 6 ------- null}
+ -t 2.16644444444444 -s 1 -d 2 -p ack -e 40 -c 0 -i 23 -a 0 -x {3.1 2.0 6 ------- null}
- -t 2.16644444444444 -s 1 -d 2 -p ack -e 40 -c 0 -i 23 -a 0 -x {3.1 2.0 6 ------- null}
h -t 2.16644444444444 -s 1 -d 2 -p ack -e 40 -c 0 -i 23 -a 0 -x {3.1 2.0 -1 ------- null}
r -t 2.16719111111111 -s 2 -d 1 -p tcp -e 1040 -c 0 -i 22 -a 0 -x {2.0 3.1 8 ------- null}
+ -t 2.16719111111111 -s 1 -d 3 -p tcp -e 1040 -c 0 -i 22 -a 0 -x {2.0 3.1 8 ------- null}
r -t 2.16736 -s 1 -d 2 -p ack -e 40 -c 0 -i 20 -a 0 -x {3.1 2.0 5 ------- null}
+ -t 2.16736 -s 2 -d 1 -p tcp -e 1040 -c 0 -i 26 -a 0 -x {2.0 3.1 11 ------- null}
- -t 2.16736 -s 2 -d 1 -p tcp -e 1040 -c 0 -i 26 -a 0 -x {2.0 3.1 11 ------- null}
h -t 2.16736 -s 2 -d 1 -p tcp -e 1040 -c 0 -i 26 -a 0 -x {2.0 3.1 -1 ------- null}
+ -t 2.16736 -s 2 -d 1 -p tcp -e 1040 -c 0 -i 27 -a 0 -x {2.0 3.1 12 ------- null}
- -t 2.17152 -s 2 -d 1 -p tcp -e 1040 -c 0 -i 27 -a 0 -x {2.0 3.1 12 ------- null}
h -t 2.17152 -s 2 -d 1 -p tcp -e 1040 -c 0 -i 27 -a 0 -x {2.0 3.1 -1 ------- null}
r -t 2.17227555555555 -s 2 -d 1 -p tcp -e 1040 -c 0 -i 24 -a 0 -x {2.0 3.1 9 ------- null}
+ -t 2.17227555555555 -s 1 -d 3 -p tcp -e 1040 -c 0 -i 24 -a 0 -x {2.0 3.1 9 ------- null}
- -t 2.17227555555555 -s 1 -d 3 -p tcp -e 1040 -c 0 -i 22 -a 0 -x {2.0 3.1 8 ------- null}
h -t 2.17227555555555 -s 1 -d 3 -p tcp -e 1040 -c 0 -i 22 -a 0 -x {2.0 3.1 -1 ------- null}
r -t 2.17643555555556 -s 2 -d 1 -p tcp -e 1040 -c 0 -i 25 -a 0 -x {2.0 3.1 10 ------- null}
+ -t 2.17643555555556 -s 1 -d 3 -p tcp -e 1040 -c 0 -i 25 -a 0 -x {2.0 3.1 10 ------- null}
r -t 2.17660444444444 -s 1 -d 2 -p ack -e 40 -c 0 -i 23 -a 0 -x {3.1 2.0 6 ------- null}
+ -t 2.17660444444444 -s 2 -d 1 -p tcp -e 1040 -c 0 -i 28 -a 0 -x {2.0 3.1 13 ------- null}
- -t 2.17660444444444 -s 2 -d 1 -p tcp -e 1040 -c 0 -i 28 -a 0 -x {2.0 3.1 13 ------- null}
h -t 2.17660444444444 -s 2 -d 1 -p tcp -e 1040 -c 0 -i 28 -a 0 -x {2.0 3.1 -1 ------- null}
+ -t 2.17660444444444 -s 2 -d 1 -p tcp -e 1040 -c 0 -i 29 -a 0 -x {2.0 3.1 14 ------- null}
- -t 2.18076444444444 -s 2 -d 1 -p tcp -e 1040 -c 0 -i 29 -a 0 -x {2.0 3.1 14 ------- null}
h -t 2.18076444444444 -s 2 -d 1 -p tcp -e 1040 -c 0 -i 29 -a 0 -x {2.0 3.1 -1 ------- null}
r -t 2.18152 -s 2 -d 1 -p tcp -e 1040 -c 0 -i 26 -a 0 -x {2.0 3.1 11 ------- null}
+ -t 2.18152 -s 1 -d 3 -p tcp -e 1040 -c 0 -i 26 -a 0 -x {2.0 3.1 11 ------- null}
- -t 2.18152 -s 1 -d 3 -p tcp -e 1040 -c 0 -i 24 -a 0 -x {2.0 3.1 9 ------- null}
h -t 2.18152 -s 1 -d 3 -p tcp -e 1040 -c 0 -i 24 -a 0 -x {2.0 3.1 -1 ------- null}
r -t 2.18227555555555 -s 1 -d 3 -p tcp -e 1040 -c 0 -i 21 -a 0 -x {2.0 3.1 7 ------- null}
+ -t 2.18227555555555 -s 3 -d 1 -p ack -e 40 -c 0 -i 30 -a 0 -x {3.1 2.0 7 ------- null}
- -t 2.18227555555555 -s 3 -d 1 -p ack -e 40 -c 0 -i 30 -a 0 -x {3.1 2.0 7 ------- null}
h -t 2.18227555555555 -s 3 -d 1 -p ack -e 40 -c 0 -i 30 -a 0 -x {3.1 2.0 -1 ------- null}
r -t 2.18568 -s 2 -d 1 -p tcp -e 1040 -c 0 -i 27 -a 0 -x {2.0 3.1 12 ------- null}
+ -t 2.18568 -s 1 -d 3 -p tcp -e 1040 -c 0 -i 27 -a 0 -x {2.0 3.1 12 ------- null}
r -t 2.19076444444444 -s 2 -d 1 -p tcp -e 1040 -c 0 -i 28 -a 0 -x {2.0 3.1 13 ------- null}
+ -t 2.19076444444444 -s 1 -d 3 -p tcp -e 1040 -c 0 -i 28 -a 0 -x {2.0 3.1 13 ------- null}
- -t 2.19076444444444 -s 1 -d 3 -p tcp -e 1040 -c 0 -i 25 -a 0 -x {2.0 3.1 10 ------- null}
h -t 2.19076444444444 -s 1 -d 3 -p tcp -e 1040 -c 0 -i 25 -a 0 -x {2.0 3.1 -1 ------- null}
r -t 2.19152 -s 1 -d 3 -p tcp -e 1040 -c 0 -i 22 -a 0 -x {2.0 3.1 8 ------- null}
+ -t 2.19152 -s 3 -d 1 -p ack -e 40 -c 0 -i 31 -a 0 -x {3.1 2.0 8 ------- null}
- -t 2.19152 -s 3 -d 1 -p ack -e 40 -c 0 -i 31 -a 0 -x {3.1 2.0 8 ------- null}
h -t 2.19152 -s 3 -d 1 -p ack -e 40 -c 0 -i 31 -a 0 -x {3.1 2.0 -1 ------- null}
r -t 2.19263111111111 -s 3 -d 1 -p ack -e 40 -c 0 -i 30 -a 0 -x {3.1 2.0 7 ------- null}
+ -t 2.19263111111111 -s 1 -d 2 -p ack -e 40 -c 0 -i 30 -a 0 -x {3.1 2.0 7 ------- null}
- -t 2.19263111111111 -s 1 -d 2 -p ack -e 40 -c 0 -i 30 -a 0 -x {3.1 2.0 7 ------- null}
h -t 2.19263111111111 -s 1 -d 2 -p ack -e 40 -c 0 -i 30 -a 0 -x {3.1 2.0 -1 ------- null}
r -t 2.19492444444444 -s 2 -d 1 -p tcp -e 1040 -c 0 -i 29 -a 0 -x {2.0 3.1 14 ------- null}
+ -t 2.19492444444444 -s 1 -d 3 -p tcp -e 1040 -c 0 -i 29 -a 0 -x {2.0 3.1 14 ------- null}
- -t 2.20000888888889 -s 1 -d 3 -p tcp -e 1040 -c 0 -i 26 -a 0 -x {2.0 3.1 11 ------- null}
h -t 2.20000888888889 -s 1 -d 3 -p tcp -e 1040 -c 0 -i 26 -a 0 -x {2.0 3.1 -1 ------- null}
r -t 2.20076444444444 -s 1 -d 3 -p tcp -e 1040 -c 0 -i 24 -a 0 -x {2.0 3.1 9 ------- null}
+ -t 2.20076444444444 -s 3 -d 1 -p ack -e 40 -c 0 -i 32 -a 0 -x {3.1 2.0 9 ------- null}
- -t 2.20076444444444 -s 3 -d 1 -p ack -e 40 -c 0 -i 32 -a 0 -x {3.1 2.0 9 ------- null}
h -t 2.20076444444444 -s 3 -d 1 -p ack -e 40 -c 0 -i 32 -a 0 -x {3.1 2.0 -1 ------- null}
r -t 2.20187555555555 -s 3 -d 1 -p ack -e 40 -c 0 -i 31 -a 0 -x {3.1 2.0 8 ------- null}
+ -t 2.20187555555555 -s 1 -d 2 -p ack -e 40 -c 0 -i 31 -a 0 -x {3.1 2.0 8 ------- null}
- -t 2.20187555555555 -s 1 -d 2 -p ack -e 40 -c 0 -i 31 -a 0 -x {3.1 2.0 8 ------- null}
h -t 2.20187555555555 -s 1 -d 2 -p ack -e 40 -c 0 -i 31 -a 0 -x {3.1 2.0 -1 ------- null}
r -t 2.20279111111111 -s 1 -d 2 -p ack -e 40 -c 0 -i 30 -a 0 -x {3.1 2.0 7 ------- null}
+ -t 2.20279111111111 -s 2 -d 1 -p tcp -e 1040 -c 0 -i 33 -a 0 -x {2.0 3.1 15 ------- null}
- -t 2.20279111111111 -s 2 -d 1 -p tcp -e 1040 -c 0 -i 33 -a 0 -x {2.0 3.1 15 ------- null}
h -t 2.20279111111111 -s 2 -d 1 -p tcp -e 1040 -c 0 -i 33 -a 0 -x {2.0 3.1 -1 ------- null}
+ -t 2.20279111111111 -s 2 -d 1 -p tcp -e 1040 -c 0 -i 34 -a 0 -x {2.0 3.1 16 ------- null}
- -t 2.20695111111111 -s 2 -d 1 -p tcp -e 1040 -c 0 -i 34 -a 0 -x {2.0 3.1 16 ------- null}
h -t 2.20695111111111 -s 2 -d 1 -p tcp -e 1040 -c 0 -i 34 -a 0 -x {2.0 3.1 -1 ------- null}
- -t 2.20925333333333 -s 1 -d 3 -p tcp -e 1040 -c 0 -i 27 -a 0 -x {2.0 3.1 12 ------- null}
h -t 2.20925333333333 -s 1 -d 3 -p tcp -e 1040 -c 0 -i 27 -a 0 -x {2.0 3.1 -1 ------- null}
r -t 2.21000888888889 -s 1 -d 3 -p tcp -e 1040 -c 0 -i 25 -a 0 -x {2.0 3.1 10 ------- null}
+ -t 2.21000888888889 -s 3 -d 1 -p ack -e 40 -c 0 -i 35 -a 0 -x {3.1 2.0 10 ------- null}
- -t 2.21000888888889 -s 3 -d 1 -p ack -e 40 -c 0 -i 35 -a 0 -x {3.1 2.0 10 ------- null}
h -t 2.21000888888889 -s 3 -d 1 -p ack -e 40 -c 0 -i 35 -a 0 -x {3.1 2.0 -1 ------- null}
r -t 2.21112 -s 3 -d 1 -p ack -e 40 -c 0 -i 32 -a 0 -x {3.1 2.0 9 ------- null}
+ -t 2.21112 -s 1 -d 2 -p ack -e 40 -c 0 -i 32 -a 0 -x {3.1 2.0 9 ------- null}
- -t 2.21112 -s 1 -d 2 -p ack -e 40 -c 0 -i 32 -a 0 -x {3.1 2.0 9 ------- null}
h -t 2.21112 -s 1 -d 2 -p ack -e 40 -c 0 -i 32 -a 0 -x {3.1 2.0 -1 ------- null}
r -t 2.21203555555555 -s 1 -d 2 -p ack -e 40 -c 0 -i 31 -a 0 -x {3.1 2.0 8 ------- null}
+ -t 2.21203555555555 -s 2 -d 1 -p tcp -e 1040 -c 0 -i 36 -a 0 -x {2.0 3.1 17 ------- null}
- -t 2.21203555555555 -s 2 -d 1 -p tcp -e 1040 -c 0 -i 36 -a 0 -x {2.0 3.1 17 ------- null}
h -t 2.21203555555555 -s 2 -d 1 -p tcp -e 1040 -c 0 -i 36 -a 0 -x {2.0 3.1 -1 ------- null}
+ -t 2.21203555555555 -s 2 -d 1 -p tcp -e 1040 -c 0 -i 37 -a 0 -x {2.0 3.1 18 ------- null}
- -t 2.21619555555555 -s 2 -d 1 -p tcp -e 1040 -c 0 -i 37 -a 0 -x {2.0 3.1 18 ------- null}
h -t 2.21619555555555 -s 2 -d 1 -p tcp -e 1040 -c 0 -i 37 -a 0 -x {2.0 3.1 -1 ------- null}
r -t 2.21695111111111 -s 2 -d 1 -p tcp -e 1040 -c 0 -i 33 -a 0 -x {2.0 3.1 15 ------- null}
+ -t 2.21695111111111 -s 1 -d 3 -p tcp -e 1040 -c 0 -i 33 -a 0 -x {2.0 3.1 15 ------- null}
- -t 2.21849777777778 -s 1 -d 3 -p tcp -e 1040 -c 0 -i 28 -a 0 -x {2.0 3.1 13 ------- null}
h -t 2.21849777777778 -s 1 -d 3 -p tcp -e 1040 -c 0 -i 28 -a 0 -x {2.0 3.1 -1 ------- null}
r -t 2.21925333333333 -s 1 -d 3 -p tcp -e 1040 -c 0 -i 26 -a 0 -x {2.0 3.1 11 ------- null}
+ -t 2.21925333333333 -s 3 -d 1 -p ack -e 40 -c 0 -i 38 -a 0 -x {3.1 2.0 11 ------- null}
- -t 2.21925333333333 -s 3 -d 1 -p ack -e 40 -c 0 -i 38 -a 0 -x {3.1 2.0 11 ------- null}
h -t 2.21925333333333 -s 3 -d 1 -p ack -e 40 -c 0 -i 38 -a 0 -x {3.1 2.0 -1 ------- null}
r -t 2.22036444444444 -s 3 -d 1 -p ack -e 40 -c 0 -i 35 -a 0 -x {3.1 2.0 10 ------- null}
+ -t 2.22036444444444 -s 1 -d 2 -p ack -e 40 -c 0 -i 35 -a 0 -x {3.1 2.0 10 ------- null}
- -t 2.22036444444444 -s 1 -d 2 -p ack -e 40 -c 0 -i 35 -a 0 -x {3.1 2.0 10 ------- null}
h -t 2.22036444444444 -s 1 -d 2 -p ack -e 40 -c 0 -i 35 -a 0 -x {3.1 2.0 -1 ------- null}
r -t 2.22111111111111 -s 2 -d 1 -p tcp -e 1040 -c 0 -i 34 -a 0 -x {2.0 3.1 16 ------- null}
+ -t 2.22111111111111 -s 1 -d 3 -p tcp -e 1040 -c 0 -i 34 -a 0 -x {2.0 3.1 16 ------- null}
r -t 2.22128 -s 1 -d 2 -p ack -e 40 -c 0 -i 32 -a 0 -x {3.1 2.0 9 ------- null}
+ -t 2.22128 -s 2 -d 1 -p tcp -e 1040 -c 0 -i 39 -a 0 -x {2.0 3.1 19 ------- null}
- -t 2.22128 -s 2 -d 1 -p tcp -e 1040 -c 0 -i 39 -a 0 -x {2.0 3.1 19 ------- null}
h -t 2.22128 -s 2 -d 1 -p tcp -e 1040 -c 0 -i 39 -a 0 -x {2.0 3.1 -1 ------- null}
+ -t 2.22128 -s 2 -d 1 -p tcp -e 1040 -c 0 -i 40 -a 0 -x {2.0 3.1 20 ------- null}
- -t 2.22544 -s 2 -d 1 -p tcp -e 1040 -c 0 -i 40 -a 0 -x {2.0 3.1 20 ------- null}
h -t 2.22544 -s 2 -d 1 -p tcp -e 1040 -c 0 -i 40 -a 0 -x {2.0 3.1 -1 ------- null}
r -t 2.22619555555555 -s 2 -d 1 -p tcp -e 1040 -c 0 -i 36 -a 0 -x {2.0 3.1 17 ------- null}
+ -t 2.22619555555555 -s 1 -d 3 -p tcp -e 1040 -c 0 -i 36 -a 0 -x {2.0 3.1 17 ------- null}
- -t 2.22774222222222 -s 1 -d 3 -p tcp -e 1040 -c 0 -i 29 -a 0 -x {2.0 3.1 14 ------- null}
h -t 2.22774222222222 -s 1 -d 3 -p tcp -e 1040 -c 0 -i 29 -a 0 -x {2.0 3.1 -1 ------- null}
r -t 2.22849777777778 -s 1 -d 3 -p tcp -e 1040 -c 0 -i 27 -a 0 -x {2.0 3.1 12 ------- null}
+ -t 2.22849777777778 -s 3 -d 1 -p ack -e 40 -c 0 -i 41 -a 0 -x {3.1 2.0 12 ------- null}
- -t 2.22849777777778 -s 3 -d 1 -p ack -e 40 -c 0 -i 41 -a 0 -x {3.1 2.0 12 ------- null}
h -t 2.22849777777778 -s 3 -d 1 -p ack -e 40 -c 0 -i 41 -a 0 -x {3.1 2.0 -1 ------- null}
r -t 2.22960888888889 -s 3 -d 1 -p ack -e 40 -c 0 -i 38 -a 0 -x {3.1 2.0 11 ------- null}
+ -t 2.22960888888889 -s 1 -d 2 -p ack -e 40 -c 0 -i 38 -a 0 -x {3.1 2.0 11 ------- null}
- -t 2.22960888888889 -s 1 -d 2 -p ack -e 40 -c 0 -i 38 -a 0 -x {3.1 2.0 11 ------- null}
h -t 2.22960888888889 -s 1 -d 2 -p ack -e 40 -c 0 -i 38 -a 0 -x {3.1 2.0 -1 ------- null}
r -t 2.23035555555555 -s 2 -d 1 -p tcp -e 1040 -c 0 -i 37 -a 0 -x {2.0 3.1 18 ------- null}
+ -t 2.23035555555555 -s 1 -d 3 -p tcp -e 1040 -c 0 -i 37 -a 0 -x {2.0 3.1 18 ------- null}
r -t 2.23052444444444 -s 1 -d 2 -p ack -e 40 -c 0 -i 35 -a 0 -x {3.1 2.0 10 ------- null}
+ -t 2.23052444444444 -s 2 -d 1 -p tcp -e 1040 -c 0 -i 42 -a 0 -x {2.0 3.1 21 ------- null}
- -t 2.23052444444444 -s 2 -d 1 -p tcp -e 1040 -c 0 -i 42 -a 0 -x {2.0 3.1 21 ------- null}
h -t 2.23052444444444 -s 2 -d 1 -p tcp -e 1040 -c 0 -i 42 -a 0 -x {2.0 3.1 -1 ------- null}
+ -t 2.23052444444444 -s 2 -d 1 -p tcp -e 1040 -c 0 -i 43 -a 0 -x {2.0 3.1 22 ------- null}
- -t 2.23468444444444 -s 2 -d 1 -p tcp -e 1040 -c 0 -i 43 -a 0 -x {2.0 3.1 22 ------- null}
h -t 2.23468444444444 -s 2 -d 1 -p tcp -e 1040 -c 0 -i 43 -a 0 -x {2.0 3.1 -1 ------- null}
r -t 2.23544 -s 2 -d 1 -p tcp -e 1040 -c 0 -i 39 -a 0 -x {2.0 3.1 19 ------- null}
+ -t 2.23544 -s 1 -d 3 -p tcp -e 1040 -c 0 -i 39 -a 0 -x {2.0 3.1 19 ------- null}
- -t 2.23698666666667 -s 1 -d 3 -p tcp -e 1040 -c 0 -i 33 -a 0 -x {2.0 3.1 15 ------- null}
h -t 2.23698666666667 -s 1 -d 3 -p tcp -e 1040 -c 0 -i 33 -a 0 -x {2.0 3.1 -1 ------- null}
r -t 2.23774222222222 -s 1 -d 3 -p tcp -e 1040 -c 0 -i 28 -a 0 -x {2.0 3.1 13 ------- null}
+ -t 2.23774222222222 -s 3 -d 1 -p ack -e 40 -c 0 -i 44 -a 0 -x {3.1 2.0 13 ------- null}
- -t 2.23774222222222 -s 3 -d 1 -p ack -e 40 -c 0 -i 44 -a 0 -x {3.1 2.0 13 ------- null}
h -t 2.23774222222222 -s 3 -d 1 -p ack -e 40 -c 0 -i 44 -a 0 -x {3.1 2.0 -1 ------- null}
r -t 2.23885333333333 -s 3 -d 1 -p ack -e 40 -c 0 -i 41 -a 0 -x {3.1 2.0 12 ------- null}
+ -t 2.23885333333333 -s 1 -d 2 -p ack -e 40 -c 0 -i 41 -a 0 -x {3.1 2.0 12 ------- null}
- -t 2.23885333333333 -s 1 -d 2 -p ack -e 40 -c 0 -i 41 -a 0 -x {3.1 2.0 12 ------- null}
h -t 2.23885333333333 -s 1 -d 2 -p ack -e 40 -c 0 -i 41 -a 0 -x {3.1 2.0 -1 ------- null}
r -t 2.2396 -s 2 -d 1 -p tcp -e 1040 -c 0 -i 40 -a 0 -x {2.0 3.1 20 ------- null}
+ -t 2.2396 -s 1 -d 3 -p tcp -e 1040 -c 0 -i 40 -a 0 -x {2.0 3.1 20 ------- null}
r -t 2.23976888888889 -s 1 -d 2 -p ack -e 40 -c 0 -i 38 -a 0 -x {3.1 2.0 11 ------- null}
+ -t 2.23976888888889 -s 2 -d 1 -p tcp -e 1040 -c 0 -i 45 -a 0 -x {2.0 3.1 23 ------- null}
- -t 2.23976888888889 -s 2 -d 1 -p tcp -e 1040 -c 0 -i 45 -a 0 -x {2.0 3.1 23 ------- null}
h -t 2.23976888888889 -s 2 -d 1 -p tcp -e 1040 -c 0 -i 45 -a 0 -x {2.0 3.1 -1 ------- null}
+ -t 2.23976888888889 -s 2 -d 1 -p tcp -e 1040 -c 0 -i 46 -a 0 -x {2.0 3.1 24 ------- null}
- -t 2.24392888888889 -s 2 -d 1 -p tcp -e 1040 -c 0 -i 46 -a 0 -x {2.0 3.1 24 ------- null}
h -t 2.24392888888889 -s 2 -d 1 -p tcp -e 1040 -c 0 -i 46 -a 0 -x {2.0 3.1 -1 ------- null}
r -t 2.24468444444444 -s 2 -d 1 -p tcp -e 1040 -c 0 -i 42 -a 0 -x {2.0 3.1 21 ------- null}