+ 0.70779 0 1 tcp 40 ------- 0 0.0 3.0 0 0
- 0.70779 0 1 tcp 40 ------- 0 0.0 3.0 0 0
r 0.71795 0 1 tcp 40 ------- 0 0.0 3.0 0 0
+ 0.71795 1 3 tcp 40 ------- 0 0.0 3.0 0 0
- 0.71795 1 3 tcp 40 ------- 0 0.0 3.0 0 0
r 0.728306 1 3 tcp 40 ------- 0 0.0 3.0 0 0
+ 0.728306 3 1 ack 40 ------- 0 3.0 0.0 0 1
- 0.728306 3 1 ack 40 ------- 0 3.0 0.0 0 1
r 0.738661 3 1 ack 40 ------- 0 3.0 0.0 0 1
+ 0.738661 1 0 ack 40 ------- 0 3.0 0.0 0 1
- 0.738661 1 0 ack 40 ------- 0 3.0 0.0 0 1
r 0.748821 1 0 ack 40 ------- 0 3.0 0.0 0 1
+ 0.748821 0 1 tcp 1040 ------- 0 0.0 3.0 1 2
- 0.748821 0 1 tcp 1040 ------- 0 0.0 3.0 1 2
r 0.762981 0 1 tcp 1040 ------- 0 0.0 3.0 1 2
+ 0.762981 1 3 tcp 1040 ------- 0 0.0 3.0 1 2
- 0.762981 1 3 tcp 1040 ------- 0 0.0 3.0 1 2
r 0.782226 1 3 tcp 1040 ------- 0 0.0 3.0 1 2
+ 0.782226 3 1 ack 40 ------- 0 3.0 0.0 1 3
- 0.782226 3 1 ack 40 ------- 0 3.0 0.0 1 3
r 0.792581 3 1 ack 40 ------- 0 3.0 0.0 1 3
+ 0.792581 1 0 ack 40 ------- 0 3.0 0.0 1 3
- 0.792581 1 0 ack 40 ------- 0 3.0 0.0 1 3
r 0.802741 1 0 ack 40 ------- 0 3.0 0.0 1 3
+ 1.431391 0 1 tcp 1040 ---A--- 0 0.0 3.0 2 4
- 1.431391 0 1 tcp 1040 ---A--- 0 0.0 3.0 2 4
r 1.445551 0 1 tcp 1040 ---A--- 0 0.0 3.0 2 4
+ 1.445551 1 3 tcp 1040 ---A--- 0 0.0 3.0 2 4
- 1.445551 1 3 tcp 1040 ---A--- 0 0.0 3.0 2 4
r 1.464795 1 3 tcp 1040 ---A--- 0 0.0 3.0 2 4
+ 1.464795 3 1 ack 40 ------- 0 3.0 0.0 2 5
- 1.464795 3 1 ack 40 ------- 0 3.0 0.0 2 5
r 1.475151 3 1 ack 40 ------- 0 3.0 0.0 2 5
+ 1.475151 1 0 ack 40 ------- 0 3.0 0.0 2 5
- 1.475151 1 0 ack 40 ------- 0 3.0 0.0 2 5
r 1.485311 1 0 ack 40 ------- 0 3.0 0.0 2 5
+ 1.591713 0 1 tcp 1040 ------- 0 0.0 3.0 3 6
- 1.591713 0 1 tcp 1040 ------- 0 0.0 3.0 3 6
r 1.605873 0 1 tcp 1040 ------- 0 0.0 3.0 3 6
+ 1.605873 1 3 tcp 1040 ------- 0 0.0 3.0 3 6
- 1.605873 1 3 tcp 1040 ------- 0 0.0 3.0 3 6
r 1.625118 1 3 tcp 1040 ------- 0 0.0 3.0 3 6
+ 1.625118 3 1 ack 40 ------- 0 3.0 0.0 3 7
- 1.625118 3 1 ack 40 ------- 0 3.0 0.0 3 7
r 1.635473 3 1 ack 40 ------- 0 3.0 0.0 3 7
+ 1.635473 1 0 ack 40 ------- 0 3.0 0.0 3 7
- 1.635473 1 0 ack 40 ------- 0 3.0 0.0 3 7
r 1.645633 1 0 ack 40 ------- 0 3.0 0.0 3 7
+ 2 2 1 tcp 40 ------- 0 2.0 3.1 0 8
- 2 2 1 tcp 40 ------- 0 2.0 3.1 0 8
r 2.01016 2 1 tcp 40 ------- 0 2.0 3.1 0 8
+ 2.01016 1 3 tcp 40 ------- 0 2.0 3.1 0 8
- 2.01016 1 3 tcp 40 ------- 0 2.0 3.1 0 8
r 2.020516 1 3 tcp 40 ------- 0 2.0 3.1 0 8
+ 2.020516 3 1 ack 40 ------- 0 3.1 2.0 0 9
- 2.020516 3 1 ack 40 ------- 0 3.1 2.0 0 9
r 2.030871 3 1 ack 40 ------- 0 3.1 2.0 0 9
+ 2.030871 1 2 ack 40 ------- 0 3.1 2.0 0 9
- 2.030871 1 2 ack 40 ------- 0 3.1 2.0 0 9
r 2.041031 1 2 ack 40 ------- 0 3.1 2.0 0 9
+ 2.041031 2 1 tcp 1040 ------- 0 2.0 3.1 1 10
- 2.041031 2 1 tcp 1040 ------- 0 2.0 3.1 1 10
+ 2.041031 2 1 tcp 1040 ------- 0 2.0 3.1 2 11
- 2.045191 2 1 tcp 1040 ------- 0 2.0 3.1 2 11
r 2.055191 2 1 tcp 1040 ------- 0 2.0 3.1 1 10
+ 2.055191 1 3 tcp 1040 ------- 0 2.0 3.1 1 10
- 2.055191 1 3 tcp 1040 ------- 0 2.0 3.1 1 10
r 2.059351 2 1 tcp 1040 ------- 0 2.0 3.1 2 11
+ 2.059351 1 3 tcp 1040 ------- 0 2.0 3.1 2 11
- 2.064436 1 3 tcp 1040 ------- 0 2.0 3.1 2 11
r 2.074436 1 3 tcp 1040 ------- 0 2.0 3.1 1 10
+ 2.074436 3 1 ack 40 ------- 0 3.1 2.0 1 12
- 2.074436 3 1 ack 40 ------- 0 3.1 2.0 1 12
r 2.08368 1 3 tcp 1040 ------- 0 2.0 3.1 2 11
+ 2.08368 3 1 ack 40 ------- 0 3.1 2.0 2 13
- 2.08368 3 1 ack 40 ------- 0 3.1 2.0 2 13
r 2.084791 3 1 ack 40 ------- 0 3.1 2.0 1 12
+ 2.084791 1 2 ack 40 ------- 0 3.1 2.0 1 12
- 2.084791 1 2 ack 40 ------- 0 3.1 2.0 1 12
r 2.094036 3 1 ack 40 ------- 0 3.1 2.0 2 13
+ 2.094036 1 2 ack 40 ------- 0 3.1 2.0 2 13
- 2.094036 1 2 ack 40 ------- 0 3.1 2.0 2 13
r 2.094951 1 2 ack 40 ------- 0 3.1 2.0 1 12
+ 2.094951 2 1 tcp 1040 ------- 0 2.0 3.1 3 14
- 2.094951 2 1 tcp 1040 ------- 0 2.0 3.1 3 14
+ 2.094951 2 1 tcp 1040 ------- 0 2.0 3.1 4 15
- 2.099111 2 1 tcp 1040 ------- 0 2.0 3.1 4 15
r 2.104196 1 2 ack 40 ------- 0 3.1 2.0 2 13
+ 2.104196 2 1 tcp 1040 ------- 0 2.0 3.1 5 16
- 2.104196 2 1 tcp 1040 ------- 0 2.0 3.1 5 16
+ 2.104196 2 1 tcp 1040 ------- 0 2.0 3.1 6 17
- 2.108356 2 1 tcp 1040 ------- 0 2.0 3.1 6 17
r 2.109111 2 1 tcp 1040 ------- 0 2.0 3.1 3 14
+ 2.109111 1 3 tcp 1040 ------- 0 2.0 3.1 3 14
- 2.109111 1 3 tcp 1040 ------- 0 2.0 3.1 3 14
r 2.113271 2 1 tcp 1040 ------- 0 2.0 3.1 4 15
+ 2.113271 1 3 tcp 1040 ------- 0 2.0 3.1 4 15
r 2.118356 2 1 tcp 1040 ------- 0 2.0 3.1 5 16
+ 2.118356 1 3 tcp 1040 ------- 0 2.0 3.1 5 16
- 2.118356 1 3 tcp 1040 ------- 0 2.0 3.1 4 15
r 2.122516 2 1 tcp 1040 ------- 0 2.0 3.1 6 17
+ 2.122516 1 3 tcp 1040 ------- 0 2.0 3.1 6 17
- 2.1276 1 3 tcp 1040 ------- 0 2.0 3.1 5 16
r 2.128356 1 3 tcp 1040 ------- 0 2.0 3.1 3 14
+ 2.128356 3 1 ack 40 ------- 0 3.1 2.0 3 18
- 2.128356 3 1 ack 40 ------- 0 3.1 2.0 3 18
- 2.136844 1 3 tcp 1040 ------- 0 2.0 3.1 6 17
r 2.1376 1 3 tcp 1040 ------- 0 2.0 3.1 4 15
+ 2.1376 3 1 ack 40 ------- 0 3.1 2.0 4 19
- 2.1376 3 1 ack 40 ------- 0 3.1 2.0 4 19
r 2.138711 3 1 ack 40 ------- 0 3.1 2.0 3 18
+ 2.138711 1 2 ack 40 ------- 0 3.1 2.0 3 18
- 2.138711 1 2 ack 40 ------- 0 3.1 2.0 3 18
r 2.146844 1 3 tcp 1040 ------- 0 2.0 3.1 5 16
+ 2.146844 3 1 ack 40 ------- 0 3.1 2.0 5 20
- 2.146844 3 1 ack 40 ------- 0 3.1 2.0 5 20
r 2.147956 3 1 ack 40 ------- 0 3.1 2.0 4 19
+ 2.147956 1 2 ack 40 ------- 0 3.1 2.0 4 19
- 2.147956 1 2 ack 40 ------- 0 3.1 2.0 4 19
r 2.148871 1 2 ack 40 ------- 0 3.1 2.0 3 18
+ 2.148871 2 1 tcp 1040 ------- 0 2.0 3.1 7 21
- 2.148871 2 1 tcp 1040 ------- 0 2.0 3.1 7 21
+ 2.148871 2 1 tcp 1040 ------- 0 2.0 3.1 8 22
- 2.153031 2 1 tcp 1040 ------- 0 2.0 3.1 8 22
r 2.156089 1 3 tcp 1040 ------- 0 2.0 3.1 6 17
+ 2.156089 3 1 ack 40 ------- 0 3.1 2.0 6 23
- 2.156089 3 1 ack 40 ------- 0 3.1 2.0 6 23
r 2.1572 3 1 ack 40 ------- 0 3.1 2.0 5 20
+ 2.1572 1 2 ack 40 ------- 0 3.1 2.0 5 20
- 2.1572 1 2 ack 40 ------- 0 3.1 2.0 5 20
r 2.158116 1 2 ack 40 ------- 0 3.1 2.0 4 19
+ 2.158116 2 1 tcp 1040 ------- 0 2.0 3.1 9 24
- 2.158116 2 1 tcp 1040 ------- 0 2.0 3.1 9 24
+ 2.158116 2 1 tcp 1040 ------- 0 2.0 3.1 10 25
- 2.162276 2 1 tcp 1040 ------- 0 2.0 3.1 10 25
r 2.163031 2 1 tcp 1040 ------- 0 2.0 3.1 7 21
+ 2.163031 1 3 tcp 1040 ------- 0 2.0 3.1 7 21
- 2.163031 1 3 tcp 1040 ------- 0 2.0 3.1 7 21
r 2.166444 3 1 ack 40 ------- 0 3.1 2.0 6 23
+ 2.166444 1 2 ack 40 ------- 0 3.1 2.0 6 23
- 2.166444 1 2 ack 40 ------- 0 3.1 2.0 6 23
r 2.167191 2 1 tcp 1040 ------- 0 2.0 3.1 8 22
+ 2.167191 1 3 tcp 1040 ------- 0 2.0 3.1 8 22
r 2.16736 1 2 ack 40 ------- 0 3.1 2.0 5 20
+ 2.16736 2 1 tcp 1040 ------- 0 2.0 3.1 11 26
- 2.16736 2 1 tcp 1040 ------- 0 2.0 3.1 11 26
+ 2.16736 2 1 tcp 1040 ------- 0 2.0 3.1 12 27
- 2.17152 2 1 tcp 1040 ------- 0 2.0 3.1 12 27
r 2.172276 2 1 tcp 1040 ------- 0 2.0 3.1 9 24
+ 2.172276 1 3 tcp 1040 ------- 0 2.0 3.1 9 24
- 2.172276 1 3 tcp 1040 ------- 0 2.0 3.1 8 22
r 2.176436 2 1 tcp 1040 ------- 0 2.0 3.1 10 25
+ 2.176436 1 3 tcp 1040 ------- 0 2.0 3.1 10 25
r 2.176604 1 2 ack 40 ------- 0 3.1 2.0 6 23
+ 2.176604 2 1 tcp 1040 ------- 0 2.0 3.1 13 28
- 2.176604 2 1 tcp 1040 ------- 0 2.0 3.1 13 28
+ 2.176604 2 1 tcp 1040 ------- 0 2.0 3.1 14 29
- 2.180764 2 1 tcp 1040 ------- 0 2.0 3.1 14 29
r 2.18152 2 1 tcp 1040 ------- 0 2.0 3.1 11 26
+ 2.18152 1 3 tcp 1040 ------- 0 2.0 3.1 11 26
- 2.18152 1 3 tcp 1040 ------- 0 2.0 3.1 9 24
r 2.182276 1 3 tcp 1040 ------- 0 2.0 3.1 7 21
+ 2.182276 3 1 ack 40 ------- 0 3.1 2.0 7 30
- 2.182276 3 1 ack 40 ------- 0 3.1 2.0 7 30
r 2.18568 2 1 tcp 1040 ------- 0 2.0 3.1 12 27
+ 2.18568 1 3 tcp 1040 ------- 0 2.0 3.1 12 27
r 2.190764 2 1 tcp 1040 ------- 0 2.0 3.1 13 28
+ 2.190764 1 3 tcp 1040 ------- 0 2.0 3.1 13 28
- 2.190764 1 3 tcp 1040 ------- 0 2.0 3.1 10 25
r 2.19152 1 3 tcp 1040 ------- 0 2.0 3.1 8 22
+ 2.19152 3 1 ack 40 ------- 0 3.1 2.0 8 31
- 2.19152 3 1 ack 40 ------- 0 3.1 2.0 8 31
r 2.192631 3 1 ack 40 ------- 0 3.1 2.0 7 30
+ 2.192631 1 2 ack 40 ------- 0 3.1 2.0 7 30
- 2.192631 1 2 ack 40 ------- 0 3.1 2.0 7 30
r 2.194924 2 1 tcp 1040 ------- 0 2.0 3.1 14 29
+ 2.194924 1 3 tcp 1040 ------- 0 2.0 3.1 14 29
- 2.200009 1 3 tcp 1040 ------- 0 2.0 3.1 11 26
r 2.200764 1 3 tcp 1040 ------- 0 2.0 3.1 9 24
+ 2.200764 3 1 ack 40 ------- 0 3.1 2.0 9 32
- 2.200764 3 1 ack 40 ------- 0 3.1 2.0 9 32
r 2.201876 3 1 ack 40 ------- 0 3.1 2.0 8 31
+ 2.201876 1 2 ack 40 ------- 0 3.1 2.0 8 31
- 2.201876 1 2 ack 40 ------- 0 3.1 2.0 8 31
r 2.202791 1 2 ack 40 ------- 0 3.1 2.0 7 30
+ 2.202791 2 1 tcp 1040 ------- 0 2.0 3.1 15 33
- 2.202791 2 1 tcp 1040 ------- 0 2.0 3.1 15 33
+ 2.202791 2 1 tcp 1040 ------- 0 2.0 3.1 16 34
- 2.206951 2 1 tcp 1040 ------- 0 2.0 3.1 16 34
- 2.209253 1 3 tcp 1040 ------- 0 2.0 3.1 12 27
r 2.210009 1 3 tcp 1040 ------- 0 2.0 3.1 10 25
+ 2.210009 3 1 ack 40 ------- 0 3.1 2.0 10 35
- 2.210009 3 1 ack 40 ------- 0 3.1 2.0 10 35
r 2.21112 3 1 ack 40 ------- 0 3.1 2.0 9 32
+ 2.21112 1 2 ack 40 ------- 0 3.1 2.0 9 32
- 2.21112 1 2 ack 40 ------- 0 3.1 2.0 9 32
r 2.212036 1 2 ack 40 ------- 0 3.1 2.0 8 31
+ 2.212036 2 1 tcp 1040 ------- 0 2.0 3.1 17 36
- 2.212036 2 1 tcp 1040 ------- 0 2.0 3.1 17 36
+ 2.212036 2 1 tcp 1040 ------- 0 2.0 3.1 18 37
- 2.216196 2 1 tcp 1040 ------- 0 2.0 3.1 18 37
r 2.216951 2 1 tcp 1040 ------- 0 2.0 3.1 15 33
+ 2.216951 1 3 tcp 1040 ------- 0 2.0 3.1 15 33
- 2.218498 1 3 tcp 1040 ------- 0 2.0 3.1 13 28
r 2.219253 1 3 tcp 1040 ------- 0 2.0 3.1 11 26
+ 2.219253 3 1 ack 40 ------- 0 3.1 2.0 11 38
- 2.219253 3 1 ack 40 ------- 0 3.1 2.0 11 38
r 2.220364 3 1 ack 40 ------- 0 3.1 2.0 10 35
+ 2.220364 1 2 ack 40 ------- 0 3.1 2.0 10 35
- 2.220364 1 2 ack 40 ------- 0 3.1 2.0 10 35
r 2.221111 2 1 tcp 1040 ------- 0 2.0 3.1 16 34
+ 2.221111 1 3 tcp 1040 ------- 0 2.0 3.1 16 34
r 2.22128 1 2 ack 40 ------- 0 3.1 2.0 9 32
+ 2.22128 2 1 tcp 1040 ------- 0 2.0 3.1 19 39
- 2.22128 2 1 tcp 1040 ------- 0 2.0 3.1 19 39
+ 2.22128 2 1 tcp 1040 ------- 0 2.0 3.1 20 40
- 2.22544 2 1 tcp 1040 ------- 0 2.0 3.1 20 40
r 2.226196 2 1 tcp 1040 ------- 0 2.0 3.1 17 36
+ 2.226196 1 3 tcp 1040 ------- 0 2.0 3.1 17 36
- 2.227742 1 3 tcp 1040 ------- 0 2.0 3.1 14 29
r 2.228498 1 3 tcp 1040 ------- 0 2.0 3.1 12 27
+ 2.228498 3 1 ack 40 ------- 0 3.1 2.0 12 41
- 2.228498 3 1 ack 40 ------- 0 3.1 2.0 12 41
r 2.229609 3 1 ack 40 ------- 0 3.1 2.0 11 38
+ 2.229609 1 2 ack 40 ------- 0 3.1 2.0 11 38
- 2.229609 1 2 ack 40 ------- 0 3.1 2.0 11 38
r 2.230356 2 1 tcp 1040 ------- 0 2.0 3.1 18 37
+ 2.230356 1 3 tcp 1040 ------- 0 2.0 3.1 18 37
r 2.230524 1 2 ack 40 ------- 0 3.1 2.0 10 35
+ 2.230524 2 1 tcp 1040 ------- 0 2.0 3.1 21 42
- 2.230524 2 1 tcp 1040 ------- 0 2.0 3.1 21 42
+ 2.230524 2 1 tcp 1040 ------- 0 2.0 3.1 22 43
- 2.234684 2 1 tcp 1040 ------- 0 2.0 3.1 22 43
r 2.23544 2 1 tcp 1040 ------- 0 2.0 3.1 19 39
+ 2.23544 1 3 tcp 1040 ------- 0 2.0 3.1 19 39
- 2.236987 1 3 tcp 1040 ------- 0 2.0 3.1 15 33
r 2.237742 1 3 tcp 1040 ------- 0 2.0 3.1 13 28
+ 2.237742 3 1 ack 40 ------- 0 3.1 2.0 13 44
- 2.237742 3 1 ack 40 ------- 0 3.1 2.0 13 44
r 2.238853 3 1 ack 40 ------- 0 3.1 2.0 12 41
+ 2.238853 1 2 ack 40 ------- 0 3.1 2.0 12 41
- 2.238853 1 2 ack 40 ------- 0 3.1 2.0 12 41
r 2.2396 2 1 tcp 1040 ------- 0 2.0 3.1 20 40
+ 2.2396 1 3 tcp 1040 ------- 0 2.0 3.1 20 40
r 2.239769 1 2 ack 40 ------- 0 3.1 2.0 11 38
+ 2.239769 2 1 tcp 1040 ------- 0 2.0 3.1 23 45
- 2.239769 2 1 tcp 1040 ------- 0 2.0 3.1 23 45
+ 2.239769 2 1 tcp 1040 ------- 0 2.0 3.1 24 46
- 2.243929 2 1 tcp 1040 ------- 0 2.0 3.1 24 46
r 2.244684 2 1 tcp 1040 ------- 0 2.0 3.1 21 42
+ 2.244684 1 3 tcp 1040 ------- 0 2.0 3.1 21 42
- 2.246231 1 3 tcp 1040 ------- 0 2.0 3.1 16 34
r 2.246987 1 3 tcp 1040 ------- 0 2.0 3.1 14 29
+ 2.246987 3 1 ack 40 ------- 0 3.1 2.0 14 47
- 2.246987 3 1 ack 40 ------- 0 3.1 2.0 14 47
r 2.248098 3 1 ack 40 ------- 0 3.1 2.0 13 44
+ 2.248098 1 2 ack 40 ------- 0 3.1 2.0 13 44
- 2.248098 1 2 ack 40 ------- 0 3.1 2.0 13 44
r 2.248844 2 1 tcp 1040 ------- 0 2.0 3.1 22 43
+ 2.248844 1 3 tcp 1040 ------- 0 2.0 3.1 22 43
r 2.249013 1 2 ack 40 ------- 0 3.1 2.0 12 41
+ 2.249013 2 1 tcp 1040 ------- 0 2.0 3.1 25 48
- 2.249013 2 1 tcp 1040 ------- 0 2.0 3.1 25 48
+ 2.249013 2 1 tcp 1040 ------- 0 2.0 3.1 26 49
- 2.253173 2 1 tcp 1040 ------- 0 2.0 3.1 26 49
r 2.253929 2 1 tcp 1040 ------- 0 2.0 3.1 23 45
+ 2.253929 1 3 tcp 1040 ------- 0 2.0 3.1 23 45
- 2.255476 1 3 tcp 1040 ------- 0 2.0 3.1 17 36
r 2.256231 1 3 tcp 1040 ------- 0 2.0 3.1 15 33
+ 2.256231 3 1 ack 40 ------- 0 3.1 2.0 15 50
- 2.256231 3 1 ack 40 ------- 0 3.1 2.0 15 50
r 2.257342 3 1 ack 40 ------- 0 3.1 2.0 14 47
+ 2.257342 1 2 ack 40 ------- 0 3.1 2.0 14 47
- 2.257342 1 2 ack 40 ------- 0 3.1 2.0 14 47
r 2.258089 2 1 tcp 1040 ------- 0 2.0 3.1 24 46
+ 2.258089 1 3 tcp 1040 ------- 0 2.0 3.1 24 46
r 2.258258 1 2 ack 40 ------- 0 3.1 2.0 13 44
+ 2.258258 2 1 tcp 1040 ------- 0 2.0 3.1 27 51
- 2.258258 2 1 tcp 1040 ------- 0 2.0 3.1 27 51
+ 2.258258 2 1 tcp 1040 ------- 0 2.0 3.1 28 52
- 2.262418 2 1 tcp 1040 ------- 0 2.0 3.1 28 52
r 2.263173 2 1 tcp 1040 ------- 0 2.0 3.1 25 48
+ 2.263173 1 3 tcp 1040 ------- 0 2.0 3.1 25 48
- 2.26472 1 3 tcp 1040 ------- 0 2.0 3.1 18 37
r 2.265476 1 3 tcp 1040 ------- 0 2.0 3.1 16 34
+ 2.265476 3 1 ack 40 ------- 0 3.1 2.0 16 53
- 2.265476 3 1 ack 40 ------- 0 3.1 2.0 16 53
r 2.266587 3 1 ack 40 ------- 0 3.1 2.0 15 50
+ 2.266587 1 2 ack 40 ------- 0 3.1 2.0 15 50
- 2.266587 1 2 ack 40 ------- 0 3.1 2.0 15 50
r 2.267333 2 1 tcp 1040 ------- 0 2.0 3.1 26 49
+ 2.267333 1 3 tcp 1040 ------- 0 2.0 3.1 26 49
r 2.267502 1 2 ack 40 ------- 0 3.1 2.0 14 47
+ 2.267502 2 1 tcp 1040 ------- 0 2.0 3.1 29 54
- 2.267502 2 1 tcp 1040 ------- 0 2.0 3.1 29 54
+ 2.267502 2 1 tcp 1040 ------- 0 2.0 3.1 30 55
- 2.271662 2 1 tcp 1040 ------- 0 2.0 3.1 30 55
r 2.272418 2 1 tcp 1040 ------- 0 2.0 3.1 27 51
+ 2.272418 1 3 tcp 1040 ------- 0 2.0 3.1 27 51
- 2.273964 1 3 tcp 1040 ------- 0 2.0 3.1 19 39
r 2.27472 1 3 tcp 1040 ------- 0 2.0 3.1 17 36
+ 2.27472 3 1 ack 40 ------- 0 3.1 2.0 17 56
- 2.27472 3 1 ack 40 ------- 0 3.1 2.0 17 56
r 2.275831 3 1 ack 40 ------- 0 3.1 2.0 16 53
+ 2.275831 1 2 ack 40 ------- 0 3.1 2.0 16 53
- 2.275831 1 2 ack 40 ------- 0 3.1 2.0 16 53
r 2.276578 2 1 tcp 1040 ------- 0 2.0 3.1 28 52
+ 2.276578 1 3 tcp 1040 ------- 0 2.0 3.1 28 52
r 2.276747 1 2 ack 40 ------- 0 3.1 2.0 15 50
+ 2.276747 2 1 tcp 1040 ------- 0 2.0 3.1 31 57
- 2.276747 2 1 tcp 1040 ------- 0 2.0 3.1 31 57
+ 2.276747 2 1 tcp 1040 ------- 0 2.0 3.1 32 58
- 2.280907 2 1 tcp 1040 ------- 0 2.0 3.1 32 58
r 2.281662 2 1 tcp 1040 ------- 0 2.0 3.1 29 54
+ 2.281662 1 3 tcp 1040 ------- 0 2.0 3.1 29 54
d 2.281662 1 3 tcp 1040 ------- 0 2.0 3.1 29 54
- 2.283209 1 3 tcp 1040 ------- 0 2.0 3.1 20 40
r 2.283964 1 3 tcp 1040 ------- 0 2.0 3.1 18 37
+ 2.283964 3 1 ack 40 ------- 0 3.1 2.0 18 59
- 2.283964 3 1 ack 40 ------- 0 3.1 2.0 18 59
r 2.285076 3 1 ack 40 ------- 0 3.1 2.0 17 56
+ 2.285076 1 2 ack 40 ------- 0 3.1 2.0 17 56
- 2.285076 1 2 ack 40 ------- 0 3.1 2.0 17 56
r 2.285822 2 1 tcp 1040 ------- 0 2.0 3.1 30 55
+ 2.285822 1 3 tcp 1040 ------- 0 2.0 3.1 30 55
r 2.285991 1 2 ack 40 ------- 0 3.1 2.0 16 53
+ 2.285991 2 1 tcp 1040 ------- 0 2.0 3.1 33 60
- 2.285991 2 1 tcp 1040 ------- 0 2.0 3.1 33 60
+ 2.285991 2 1 tcp 1040 ------- 0 2.0 3.1 34 61
- 2.290151 2 1 tcp 1040 ------- 0 2.0 3.1 34 61
r 2.290907 2 1 tcp 1040 ------- 0 2.0 3.1 31 57
+ 2.290907 1 3 tcp 1040 ------- 0 2.0 3.1 31 57
d 2.290907 1 3 tcp 1040 ------- 0 2.0 3.1 31 57
- 2.292453 1 3 tcp 1040 ------- 0 2.0 3.1 21 42
r 2.293209 1 3 tcp 1040 ------- 0 2.0 3.1 19 39
+ 2.293209 3 1 ack 40 ------- 0 3.1 2.0 19 62
- 2.293209 3 1 ack 40 ------- 0 3.1 2.0 19 62
r 2.29432 3 1 ack 40 ------- 0 3.1 2.0 18 59
+ 2.29432 1 2 ack 40 ------- 0 3.1 2.0 18 59
- 2.29432 1 2 ack 40 ------- 0 3.1 2.0 18 59
r 2.295067 2 1 tcp 1040 ------- 0 2.0 3.1 32 58
+ 2.295067 1 3 tcp 1040 ------- 0 2.0 3.1 32 58
r 2.295236 1 2 ack 40 ------- 0 3.1 2.0 17 56
+ 2.295236 2 1 tcp 1040 ------- 0 2.0 3.1 35 63
- 2.295236 2 1 tcp 1040 ------- 0 2.0 3.1 35 63
+ 2.295236 2 1 tcp 1040 ------- 0 2.0 3.1 36 64
- 2.299396 2 1 tcp 1040 ------- 0 2.0 3.1 36 64
r 2.300151 2 1 tcp 1040 ------- 0 2.0 3.1 33 60
+ 2.300151 1 3 tcp 1040 ------- 0 2.0 3.1 33 60
d 2.300151 1 3 tcp 1040 ------- 0 2.0 3.1 33 60
- 2.301698 1 3 tcp 1040 ------- 0 2.0 3.1 22 43
r 2.302453 1 3 tcp 1040 ------- 0 2.0 3.1 20 40
+ 2.302453 3 1 ack 40 ------- 0 3.1 2.0 20 65
- 2.302453 3 1 ack 40 ------- 0 3.1 2.0 20 65
r 2.303564 3 1 ack 40 ------- 0 3.1 2.0 19 62
+ 2.303564 1 2 ack 40 ------- 0 3.1 2.0 19 62
- 2.303564 1 2 ack 40 ------- 0 3.1 2.0 19 62
r 2.304311 2 1 tcp 1040 ------- 0 2.0 3.1 34 61
+ 2.304311 1 3 tcp 1040 ------- 0 2.0 3.1 34 61
r 2.30448 1 2 ack 40 ------- 0 3.1 2.0 18 59
+ 2.30448 2 1 tcp 1040 ------- 0 2.0 3.1 37 66
- 2.30448 2 1 tcp 1040 ------- 0 2.0 3.1 37 66
+ 2.30448 2 1 tcp 1040 ------- 0 2.0 3.1 38 67
- 2.30864 2 1 tcp 1040 ------- 0 2.0 3.1 38 67
r 2.309396 2 1 tcp 1040 ------- 0 2.0 3.1 35 63
+ 2.309396 1 3 tcp 1040 ------- 0 2.0 3.1 35 63
d 2.309396 1 3 tcp 1040 ------- 0 2.0 3.1 35 63
- 2.310942 1 3 tcp 1040 ------- 0 2.0 3.1 23 45
r 2.311698 1 3 tcp 1040 ------- 0 2.0 3.1 21 42
+ 2.311698 3 1 ack 40 ------- 0 3.1 2.0 21 68
- 2.311698 3 1 ack 40 ------- 0 3.1 2.0 21 68
r 2.312809 3 1 ack 40 ------- 0 3.1 2.0 20 65
+ 2.312809 1 2 ack 40 ------- 0 3.1 2.0 20 65
- 2.312809 1 2 ack 40 ------- 0 3.1 2.0 20 65
r 2.313556 2 1 tcp 1040 ------- 0 2.0 3.1 36 64
+ 2.313556 1 3 tcp 1040 ------- 0 2.0 3.1 36 64
r 2.313724 1 2 ack 40 ------- 0 3.1 2.0 19 62
+ 2.313724 2 1 tcp 1040 ------- 0 2.0 3.1 39 69
- 2.313724 2 1 tcp 1040 ------- 0 2.0 3.1 39 69
r 2.31864 2 1 tcp 1040 ------- 0 2.0 3.1 37 66
+ 2.31864 1 3 tcp 1040 ------- 0 2.0 3.1 37 66
d 2.31864 1 3 tcp 1040 ------- 0 2.0 3.1 37 66
- 2.320187 1 3 tcp 1040 ------- 0 2.0 3.1 24 46
r 2.320942 1 3 tcp 1040 ------- 0 2.0 3.1 22 43
+ 2.320942 3 1 ack 40 ------- 0 3.1 2.0 22 70
- 2.320942 3 1 ack 40 ------- 0 3.1 2.0 22 70
r 2.322053 3 1 ack 40 ------- 0 3.1 2.0 21 68
+ 2.322053 1 2 ack 40 ------- 0 3.1 2.0 21 68
- 2.322053 1 2 ack 40 ------- 0 3.1 2.0 21 68
r 2.3228 2 1 tcp 1040 ------- 0 2.0 3.1 38 67
+ 2.3228 1 3 tcp 1040 ------- 0 2.0 3.1 38 67
r 2.322969 1 2 ack 40 ------- 0 3.1 2.0 20 65
+ 2.322969 2 1 tcp 1040 ------- 0 2.0 3.1 40 71
- 2.322969 2 1 tcp 1040 ------- 0 2.0 3.1 40 71
r 2.327884 2 1 tcp 1040 ------- 0 2.0 3.1 39 69
+ 2.327884 1 3 tcp 1040 ------- 0 2.0 3.1 39 69
d 2.327884 1 3 tcp 1040 ------- 0 2.0 3.1 39 69
- 2.329431 1 3 tcp 1040 ------- 0 2.0 3.1 25 48
r 2.330187 1 3 tcp 1040 ------- 0 2.0 3.1 23 45
+ 2.330187 3 1 ack 40 ------- 0 3.1 2.0 23 72
- 2.330187 3 1 ack 40 ------- 0 3.1 2.0 23 72
r 2.331298 3 1 ack 40 ------- 0 3.1 2.0 22 70
+ 2.331298 1 2 ack 40 ------- 0 3.1 2.0 22 70
- 2.331298 1 2 ack 40 ------- 0 3.1 2.0 22 70
r 2.332213 1 2 ack 40 ------- 0 3.1 2.0 21 68
+ 2.332213 2 1 tcp 1040 ------- 0 2.0 3.1 41 73
- 2.332213 2 1 tcp 1040 ------- 0 2.0 3.1 41 73
r 2.337129 2 1 tcp 1040 ------- 0 2.0 3.1 40 71
+ 2.337129 1 3 tcp 1040 ------- 0 2.0 3.1 40 71
- 2.338676 1 3 tcp 1040 ------- 0 2.0 3.1 26 49
r 2.339431 1 3 tcp 1040 ------- 0 2.0 3.1 24 46
+ 2.339431 3 1 ack 40 ------- 0 3.1 2.0 24 74
- 2.339431 3 1 ack 40 ------- 0 3.1 2.0 24 74
r 2.340542 3 1 ack 40 ------- 0 3.1 2.0 23 72
+ 2.340542 1 2 ack 40 ------- 0 3.1 2.0 23 72
- 2.340542 1 2 ack 40 ------- 0 3.1 2.0 23 72
r 2.341458 1 2 ack 40 ------- 0 3.1 2.0 22 70
+ 2.341458 2 1 tcp 1040 ------- 0 2.0 3.1 42 75
- 2.341458 2 1 tcp 1040 ------- 0 2.0 3.1 42 75
r 2.346373 2 1 tcp 1040 ------- 0 2.0 3.1 41 73
+ 2.346373 1 3 tcp 1040 ------- 0 2.0 3.1 41 73
- 2.34792 1 3 tcp 1040 ------- 0 2.0 3.1 27 51
r 2.348676 1 3 tcp 1040 ------- 0 2.0 3.1 25 48
+ 2.348676 3 1 ack 40 ------- 0 3.1 2.0 25 76
- 2.348676 3 1 ack 40 ------- 0 3.1 2.0 25 76
r 2.349787 3 1 ack 40 ------- 0 3.1 2.0 24 74
+ 2.349787 1 2 ack 40 ------- 0 3.1 2.0 24 74
- 2.349787 1 2 ack 40 ------- 0 3.1 2.0 24 74
r 2.350702 1 2 ack 40 ------- 0 3.1 2.0 23 72
+ 2.350702 2 1 tcp 1040 ------- 0 2.0 3.1 43 77
- 2.350702 2 1 tcp 1040 ------- 0 2.0 3.1 43 77
r 2.355618 2 1 tcp 1040 ------- 0 2.0 3.1 42 75
+ 2.355618 1 3 tcp 1040 ------- 0 2.0 3.1 42 75
- 2.357164 1 3 tcp 1040 ------- 0 2.0 3.1 28 52
r 2.35792 1 3 tcp 1040 ------- 0 2.0 3.1 26 49
+ 2.35792 3 1 ack 40 ------- 0 3.1 2.0 26 78
- 2.35792 3 1 ack 40 ------- 0 3.1 2.0 26 78
r 2.359031 3 1 ack 40 ------- 0 3.1 2.0 25 76
+ 2.359031 1 2 ack 40 ------- 0 3.1 2.0 25 76
- 2.359031 1 2 ack 40 ------- 0 3.1 2.0 25 76
r 2.359947 1 2 ack 40 ------- 0 3.1 2.0 24 74
+ 2.359947 2 1 tcp 1040 ------- 0 2.0 3.1 44 79
- 2.359947 2 1 tcp 1040 ------- 0 2.0 3.1 44 79
r 2.364862 2 1 tcp 1040 ------- 0 2.0 3.1 43 77
+ 2.364862 1 3 tcp 1040 ------- 0 2.0 3.1 43 77
- 2.366409 1 3 tcp 1040 ------- 0 2.0 3.1 30 55
r 2.367164 1 3 tcp 1040 ------- 0 2.0 3.1 27 51
+ 2.367164 3 1 ack 40 ------- 0 3.1 2.0 27 80
- 2.367164 3 1 ack 40 ------- 0 3.1 2.0 27 80
r 2.368276 3 1 ack 40 ------- 0 3.1 2.0 26 78
+ 2.368276 1 2 ack 40 ------- 0 3.1 2.0 26 78
- 2.368276 1 2 ack 40 ------- 0 3.1 2.0 26 78
r 2.369191 1 2 ack 40 ------- 0 3.1 2.0 25 76
+ 2.369191 2 1 tcp 1040 ------- 0 2.0 3.1 45 81
- 2.369191 2 1 tcp 1040 ------- 0 2.0 3.1 45 81
r 2.374107 2 1 tcp 1040 ------- 0 2.0 3.1 44 79
+ 2.374107 1 3 tcp 1040 ------- 0 2.0 3.1 44 79
- 2.375653 1 3 tcp 1040 ------- 0 2.0 3.1 32 58
r 2.376409 1 3 tcp 1040 ------- 0 2.0 3.1 28 52
+ 2.376409 3 1 ack 40 ------- 0 3.1 2.0 28 82
- 2.376409 3 1 ack 40 ------- 0 3.1 2.0 28 82
r 2.37752 3 1 ack 40 ------- 0 3.1 2.0 27 80
+ 2.37752 1 2 ack 40 ------- 0 3.1 2.0 27 80
- 2.37752 1 2 ack 40 ------- 0 3.1 2.0 27 80
r 2.378436 1 2 ack 40 ------- 0 3.1 2.0 26 78
+ 2.378436 2 1 tcp 1040 ------- 0 2.0 3.1 46 83
- 2.378436 2 1 tcp 1040 ------- 0 2.0 3.1 46 83
r 2.383351 2 1 tcp 1040 ------- 0 2.0 3.1 45 81
+ 2.383351 1 3 tcp 1040 ------- 0 2.0 3.1 45 81
- 2.384898 1 3 tcp 1040 ------- 0 2.0 3.1 34 61
r 2.385653 1 3 tcp 1040 ------- 0 2.0 3.1 30 55
+ 2.385653 3 1 ack 40 ------- 0 3.1 2.0 28 84
- 2.385653 3 1 ack 40 ------- 0 3.1 2.0 28 84
r 2.386764 3 1 ack 40 ------- 0 3.1 2.0 28 82
+ 2.386764 1 2 ack 40 ------- 0 3.1 2.0 28 82
- 2.386764 1 2 ack 40 ------- 0 3.1 2.0 28 82
r 2.38768 1 2 ack 40 ------- 0 3.1 2.0 27 80
+ 2.38768 2 1 tcp 1040 ------- 0 2.0 3.1 47 85
- 2.38768 2 1 tcp 1040 ------- 0 2.0 3.1 47 85
r 2.392596 2 1 tcp 1040 ------- 0 2.0 3.1 46 83
+ 2.392596 1 3 tcp 1040 ------- 0 2.0 3.1 46 83
- 2.394142 1 3 tcp 1040 ------- 0 2.0 3.1 36 64
r 2.394898 1 3 tcp 1040 ------- 0 2.0 3.1 32 58
+ 2.394898 3 1 ack 40 ------- 0 3.1 2.0 28 86
- 2.394898 3 1 ack 40 ------- 0 3.1 2.0 28 86
r 2.396009 3 1 ack 40 ------- 0 3.1 2.0 28 84
+ 2.396009 1 2 ack 40 ------- 0 3.1 2.0 28 84
- 2.396009 1 2 ack 40 ------- 0 3.1 2.0 28 84
r 2.396924 1 2 ack 40 ------- 0 3.1 2.0 28 82
+ 2.396924 2 1 tcp 1040 ------- 0 2.0 3.1 48 87
- 2.396924 2 1 tcp 1040 ------- 0 2.0 3.1 48 87
+ 2.398436 0 1 tcp 1040 ---A--- 0 0.0 3.0 4 88
- 2.398436 0 1 tcp 1040 ---A--- 0 0.0 3.0 4 88
r 2.40184 2 1 tcp 1040 ------- 0 2.0 3.1 47 85
+ 2.40184 1 3 tcp 1040 ------- 0 2.0 3.1 47 85
- 2.403387 1 3 tcp 1040 ------- 0 2.0 3.1 38 67
r 2.404142 1 3 tcp 1040 ------- 0 2.0 3.1 34 61
+ 2.404142 3 1 ack 40 ------- 0 3.1 2.0 28 89
- 2.404142 3 1 ack 40 ------- 0 3.1 2.0 28 89
r 2.405253 3 1 ack 40 ------- 0 3.1 2.0 28 86
+ 2.405253 1 2 ack 40 ------- 0 3.1 2.0 28 86
- 2.405253 1 2 ack 40 ------- 0 3.1 2.0 28 86
r 2.406169 1 2 ack 40 ------- 0 3.1 2.0 28 84
r 2.411084 2 1 tcp 1040 ------- 0 2.0 3.1 48 87
+ 2.411084 1 3 tcp 1040 ------- 0 2.0 3.1 48 87
r 2.412596 0 1 tcp 1040 ---A--- 0 0.0 3.0 4 88
+ 2.412596 1 3 tcp 1040 ---A--- 0 0.0 3.0 4 88
d 2.412596 1 3 tcp 1040 ---A--- 0 0.0 3.0 4 88
- 2.412631 1 3 tcp 1040 ------- 0 2.0 3.1 40 71
r 2.413387 1 3 tcp 1040 ------- 0 2.0 3.1 36 64
+ 2.413387 3 1 ack 40 ------- 0 3.1 2.0 28 90
- 2.413387 3 1 ack 40 ------- 0 3.1 2.0 28 90
r 2.414498 3 1 ack 40 ------- 0 3.1 2.0 28 89
+ 2.414498 1 2 ack 40 ------- 0 3.1 2.0 28 89
- 2.414498 1 2 ack 40 ------- 0 3.1 2.0 28 89
r 2.415413 1 2 ack 40 ------- 0 3.1 2.0 28 86
- 2.421876 1 3 tcp 1040 ------- 0 2.0 3.1 41 73
r 2.422631 1 3 tcp 1040 ------- 0 2.0 3.1 38 67
+ 2.422631 3 1 ack 40 ------- 0 3.1 2.0 28 91
- 2.422631 3 1 ack 40 ------- 0 3.1 2.0 28 91
r 2.423742 3 1 ack 40 ------- 0 3.1 2.0 28 90
+ 2.423742 1 2 ack 40 ------- 0 3.1 2.0 28 90
- 2.423742 1 2 ack 40 ------- 0 3.1 2.0 28 90
r 2.424658 1 2 ack 40 ------- 0 3.1 2.0 28 89
+ 2.424658 2 1 tcp 1040 ---A--- 0 2.0 3.1 29 92
- 2.424658 2 1 tcp 1040 ---A--- 0 2.0 3.1 29 92
- 2.43112 1 3 tcp 1040 ------- 0 2.0 3.1 42 75
r 2.431876 1 3 tcp 1040 ------- 0 2.0 3.1 40 71
+ 2.431876 3 1 ack 40 ------- 0 3.1 2.0 28 93
- 2.431876 3 1 ack 40 ------- 0 3.1 2.0 28 93
r 2.432987 3 1 ack 40 ------- 0 3.1 2.0 28 91
+ 2.432987 1 2 ack 40 ------- 0 3.1 2.0 28 91
- 2.432987 1 2 ack 40 ------- 0 3.1 2.0 28 91
r 2.433902 1 2 ack 40 ------- 0 3.1 2.0 28 90
r 2.438818 2 1 tcp 1040 ---A--- 0 2.0 3.1 29 92
+ 2.438818 1 3 tcp 1040 ---A--- 0 2.0 3.1 29 92
- 2.440364 1 3 tcp 1040 ------- 0 2.0 3.1 43 77
r 2.44112 1 3 tcp 1040 ------- 0 2.0 3.1 41 73
+ 2.44112 3 1 ack 40 ------- 0 3.1 2.0 28 94
- 2.44112 3 1 ack 40 ------- 0 3.1 2.0 28 94
r 2.442231 3 1 ack 40 ------- 0 3.1 2.0 28 93
+ 2.442231 1 2 ack 40 ------- 0 3.1 2.0 28 93
- 2.442231 1 2 ack 40 ------- 0 3.1 2.0 28 93
r 2.443147 1 2 ack 40 ------- 0 3.1 2.0 28 91
- 2.449609 1 3 tcp 1040 ------- 0 2.0 3.1 44 79
r 2.450364 1 3 tcp 1040 ------- 0 2.0 3.1 42 75
+ 2.450364 3 1 ack 40 ------- 0 3.1 2.0 28 95
- 2.450364 3 1 ack 40 ------- 0 3.1 2.0 28 95
r 2.451476 3 1 ack 40 ------- 0 3.1 2.0 28 94
+ 2.451476 1 2 ack 40 ------- 0 3.1 2.0 28 94
- 2.451476 1 2 ack 40 ------- 0 3.1 2.0 28 94
r 2.452391 1 2 ack 40 ------- 0 3.1 2.0 28 93
- 2.458853 1 3 tcp 1040 ------- 0 2.0 3.1 45 81
r 2.459609 1 3 tcp 1040 ------- 0 2.0 3.1 43 77
+ 2.459609 3 1 ack 40 ------- 0 3.1 2.0 28 96
- 2.459609 3 1 ack 40 ------- 0 3.1 2.0 28 96
r 2.46072 3 1 ack 40 ------- 0 3.1 2.0 28 95
+ 2.46072 1 2 ack 40 ------- 0 3.1 2.0 28 95
- 2.46072 1 2 ack 40 ------- 0 3.1 2.0 28 95
r 2.461636 1 2 ack 40 ------- 0 3.1 2.0 28 94
- 2.468098 1 3 tcp 1040 ------- 0 2.0 3.1 46 83
r 2.468853 1 3 tcp 1040 ------- 0 2.0 3.1 44 79
+ 2.468853 3 1 ack 40 ------- 0 3.1 2.0 28 97
- 2.468853 3 1 ack 40 ------- 0 3.1 2.0 28 97
r 2.469964 3 1 ack 40 ------- 0 3.1 2.0 28 96
+ 2.469964 1 2 ack 40 ------- 0 3.1 2.0 28 96
- 2.469964 1 2 ack 40 ------- 0 3.1 2.0 28 96
r 2.47088 1 2 ack 40 ------- 0 3.1 2.0 28 95
- 2.477342 1 3 tcp 1040 ------- 0 2.0 3.1 47 85
r 2.478098 1 3 tcp 1040 ------- 0 2.0 3.1 45 81
+ 2.478098 3 1 ack 40 ------- 0 3.1 2.0 28 98
- 2.478098 3 1 ack 40 ------- 0 3.1 2.0 28 98
r 2.479209 3 1 ack 40 ------- 0 3.1 2.0 28 97
+ 2.479209 1 2 ack 40 ------- 0 3.1 2.0 28 97
- 2.479209 1 2 ack 40 ------- 0 3.1 2.0 28 97
r 2.480124 1 2 ack 40 ------- 0 3.1 2.0 28 96
- 2.486587 1 3 tcp 1040 ------- 0 2.0 3.1 48 87
r 2.487342 1 3 tcp 1040 ------- 0 2.0 3.1 46 83
+ 2.487342 3 1 ack 40 ------- 0 3.1 2.0 28 99
- 2.487342 3 1 ack 40 ------- 0 3.1 2.0 28 99
r 2.488453 3 1 ack 40 ------- 0 3.1 2.0 28 98
+ 2.488453 1 2 ack 40 ------- 0 3.1 2.0 28 98
- 2.488453 1 2 ack 40 ------- 0 3.1 2.0 28 98
r 2.489369 1 2 ack 40 ------- 0 3.1 2.0 28 97
- 2.495831 1 3 tcp 1040 ---A--- 0 2.0 3.1 29 92
r 2.496587 1 3 tcp 1040 ------- 0 2.0 3.1 47 85
+ 2.496587 3 1 ack 40 ------- 0 3.1 2.0 28 100
- 2.496587 3 1 ack 40 ------- 0 3.1 2.0 28 100
r 2.497698 3 1 ack 40 ------- 0 3.1 2.0 28 99
+ 2.497698 1 2 ack 40 ------- 0 3.1 2.0 28 99
- 2.497698 1 2 ack 40 ------- 0 3.1 2.0 28 99
r 2.498613 1 2 ack 40 ------- 0 3.1 2.0 28 98
r 2.505831 1 3 tcp 1040 ------- 0 2.0 3.1 48 87
+ 2.505831 3 1 ack 40 ------- 0 3.1 2.0 28 101
- 2.505831 3 1 ack 40 ------- 0 3.1 2.0 28 101
r 2.506942 3 1 ack 40 ------- 0 3.1 2.0 28 100
+ 2.506942 1 2 ack 40 ------- 0 3.1 2.0 28 100
- 2.506942 1 2 ack 40 ------- 0 3.1 2.0 28 100
r 2.507858 1 2 ack 40 ------- 0 3.1 2.0 28 99
r 2.515076 1 3 tcp 1040 ---A--- 0 2.0 3.1 29 92
+ 2.515076 3 1 ack 40 ------- 0 3.1 2.0 30 102
- 2.515076 3 1 ack 40 ------- 0 3.1 2.0 30 102
r 2.516187 3 1 ack 40 ------- 0 3.1 2.0 28 101
+ 2.516187 1 2 ack 40 ------- 0 3.1 2.0 28 101
- 2.516187 1 2 ack 40 ------- 0 3.1 2.0 28 101
r 2.517102 1 2 ack 40 ------- 0 3.1 2.0 28 100
r 2.525431 3 1 ack 40 ------- 0 3.1 2.0 30 102
+ 2.525431 1 2 ack 40 ------- 0 3.1 2.0 30 102
- 2.525431 1 2 ack 40 ------- 0 3.1 2.0 30 102
r 2.526347 1 2 ack 40 ------- 0 3.1 2.0 28 101
r 2.535591 1 2 ack 40 ------- 0 3.1 2.0 30 102
+ 2.535591 2 1 tcp 1040 ------- 0 2.0 3.1 31 103
- 2.535591 2 1 tcp 1040 ------- 0 2.0 3.1 31 103
+ 2.535591 2 1 tcp 1040 ------- 0 2.0 3.1 32 104
- 2.539751 2 1 tcp 1040 ------- 0 2.0 3.1 32 104
r 2.549751 2 1 tcp 1040 ------- 0 2.0 3.1 31 103
+ 2.549751 1 3 tcp 1040 ------- 0 2.0 3.1 31 103
- 2.549751 1 3 tcp 1040 ------- 0 2.0 3.1 31 103
r 2.553911 2 1 tcp 1040 ------- 0 2.0 3.1 32 104
+ 2.553911 1 3 tcp 1040 ------- 0 2.0 3.1 32 104
- 2.558996 1 3 tcp 1040 ------- 0 2.0 3.1 32 104
r 2.568996 1 3 tcp 1040 ------- 0 2.0 3.1 31 103
+ 2.568996 3 1 ack 40 ------- 0 3.1 2.0 32 105
- 2.568996 3 1 ack 40 ------- 0 3.1 2.0 32 105
r 2.57824 1 3 tcp 1040 ------- 0 2.0 3.1 32 104
+ 2.57824 3 1 ack 40 ------- 0 3.1 2.0 32 106
- 2.57824 3 1 ack 40 ------- 0 3.1 2.0 32 106
r 2.579351 3 1 ack 40 ------- 0 3.1 2.0 32 105
+ 2.579351 1 2 ack 40 ------- 0 3.1 2.0 32 105
- 2.579351 1 2 ack 40 ------- 0 3.1 2.0 32 105
r 2.588596 3 1 ack 40 ------- 0 3.1 2.0 32 106
+ 2.588596 1 2 ack 40 ------- 0 3.1 2.0 32 106
- 2.588596 1 2 ack 40 ------- 0 3.1 2.0 32 106
r 2.589511 1 2 ack 40 ------- 0 3.1 2.0 32 105
+ 2.589511 2 1 tcp 1040 ------- 0 2.0 3.1 33 107
- 2.589511 2 1 tcp 1040 ------- 0 2.0 3.1 33 107
+ 2.589511 2 1 tcp 1040 ------- 0 2.0 3.1 34 108
+ 2.589511 2 1 tcp 1040 ------- 0 2.0 3.1 35 109
- 2.593671 2 1 tcp 1040 ------- 0 2.0 3.1 34 108
- 2.597831 2 1 tcp 1040 ------- 0 2.0 3.1 35 109
+ 2.598436 0 1 tcp 1040 ---A--- 0 0.0 3.0 4 110
- 2.598436 0 1 tcp 1040 ---A--- 0 0.0 3.0 4 110
r 2.598756 1 2 ack 40 ------- 0 3.1 2.0 32 106
+ 2.598756 2 1 tcp 1040 ------- 0 2.0 3.1 36 111